
variable  T0    equal 287  #K
variable  T1    equal 290  #K
variable  Pa0    equal 14  # MPa
variable  P0    equal "v_Pa0/0.101325"  # MPa to atm

variable  dt    equal 1.0 #timestep fs

variable  Tdamp equal "v_dt*100"  #1000
variable  Pdamp equal "v_dt*1000"  #2500

variable  Lr    equal 1e5  # npt time
variable  Lt    equal 6e6  # npt time

# ----------------- Init Section -----------------
units        real
dimension	 3
boundary	 p p p
atom_style   full
pair_style  lj/cut/tip4p/long 1 2 1 1 0.1577 11.0
kspace_style pppm/tip4p 1.0e-4
bond_style   harmonic
angle_style  harmonic
pair_modify mix arithmetic  # Lorenz – Berthelot mixing rules
special_bonds lj/coul 0.0 0.0 0.5
# ----------------- Atom Definition Section -----------------
read_data "system_rewrite.data"
  orthogonal box = (0 17.8313 0) to (35.6625 89.1562 35.6625)
  2 by 4 by 4 MPI processor grid
  reading atoms ...
  7668 atoms
  scanning bonds ...
  2 = max bonds/atom
  scanning angles ...
  1 = max angles/atom
  reading bonds ...
  4968 bonds
  reading angles ...
  2484 angles
  2 = max # of 1-2 neighbors
  1 = max # of 1-3 neighbors
  1 = max # of 1-4 neighbors
  2 = max # of special neighbors
  special bonds CPU = 0.01719 secs
  read_data CPU = 0.092814 secs

# ----------------- Settings Section -----------------
pair_coeff   1 1  0.21084  	3.166800      # O-hydrate
pair_coeff   1 2  0.00000   0.000000      # O-H hydrate
pair_coeff   2 2  0.00000   0.000000      # H-H hydrate
pair_coeff   3 3  0.29391	3.730000	    # CT-hydrate

bond_coeff   1         1000.0    0.9572
angle_coeff  1         100.0    104.52

group water		 	type   1  2
7452 atoms in group water
group methane 		type   3
216 atoms in group methane

# ----------------- minimize Section -----------------

neighbor 2.0 bin
neigh_modify every 1 delay 0 check yes
thermo 100
thermo_style  custom step density temp press pxx pyy pzz pe ke etotal
min_style sd
minimize 1.0e-8 1.0e-8 1000 100000
PPPM initialization ...
  extracting TIP4P info from pair style
  using 12-bit tables for long-range coulomb (../kspace.cpp:332)
  G vector (1/distance) = 0.250273
  grid = 20 36 20
  stencil order = 5
  estimated absolute RMS force accuracy = 0.0284403
  estimated relative force accuracy = 8.56472e-05
  using single precision MKL FFT
  3d grid and FFT values/proc = 3264 500
Neighbor list info ...
  update every 1 steps, delay 0 steps, check yes
  max neighbors/atom: 2000, page size: 100000
  master list distance cutoff = 13.3154
  ghost atom cutoff = 13.3154
  binsize = 6.6577, bins = 6 11 6
  1 neighbor lists, perpetual/occasional/extra = 1 0 0
  (1) pair lj/cut/tip4p/long, perpetual
      attributes: half, newton on
      pair build: half/bin/newton
      stencil: half/bin/3d/newton
      bin: standard
Per MPI rank memory allocation (min/avg/max) = 8.811 | 9.039 | 9.229 Mbytes
Step Density Temp Press Pxx Pyy Pzz PotEng KinEng TotEng 
       0   0.88261128            0    6610836.4    2965967.1    2520547.4     14345995    2191345.7            0    2191345.7 
     100   0.88261128            0    1759.5085    1757.3509    1230.5548    2290.6198   -29838.522            0   -29838.522 
     200   0.88261128            0   -1314.5755   -1369.9134   -1680.8014   -893.01177   -32385.066            0   -32385.066 
     300   0.88261128            0   -2534.3029   -2654.3894   -2828.5893   -2119.9301   -33607.281            0   -33607.281 
     400   0.88261128            0   -3250.3244    -3405.601    -3544.226   -2801.1462   -34518.932            0   -34518.932 
     500   0.88261128            0   -3715.8029   -3895.2421   -4026.3239   -3225.8427    -35428.31            0    -35428.31 
     600   0.88261128            0   -3857.6636   -4039.7598   -4139.0214   -3394.2096   -35809.218            0   -35809.218 
     700   0.88261128            0    -3919.694   -4111.7613   -4178.6428   -3468.6778   -36025.695            0   -36025.695 
     800   0.88261128            0   -3956.8637   -4162.4639    -4201.777   -3506.3501   -36188.048            0   -36188.048 
     900   0.88261128            0   -3973.4591   -4185.2288   -4214.9839   -3520.1646   -36320.284            0   -36320.284 
    1000   0.88261128            0   -3980.2981   -4194.3328   -4219.0353   -3527.5261   -36428.557            0   -36428.557 
Loop time of 10.4711 on 32 procs for 1000 steps with 7668 atoms

99.5% CPU use with 32 MPI tasks x 1 OpenMP threads

Minimization stats:
  Stopping criterion = max iterations
  Energy initial, next-to-last, final = 
         2191345.68598     -36427.5284504     -36428.5571004
  Force two-norm initial, final = 2.31359e+07 66.9253
  Force max component initial, final = 1.51745e+07 15.0481
  Final line search alpha, max atom move = 0.00636599 0.095796
  Iterations, force evaluations = 1000 1965

MPI task timing breakdown:
Section |  min time  |  avg time  |  max time  |%varavg| %total
---------------------------------------------------------------
Pair    | 6.3        | 7.641      | 9.0484     |  27.4 | 72.97
Bond    | 0.019741   | 0.023022   | 0.026232   |   1.0 |  0.22
Kspace  | 0.95496    | 2.3699     | 3.7055     |  49.4 | 22.63
Neigh   | 0.012992   | 0.013172   | 0.013368   |   0.1 |  0.13
Comm    | 0.3058     | 0.32196    | 0.33635    |   1.4 |  3.07
Output  | 0.00076461 | 0.00082505 | 0.0024307  |   0.0 |  0.01
Modify  | 0          | 0          | 0          |   0.0 |  0.00
Other   |            | 0.1013     |            |       |  0.97

Nlocal:    239.625 ave 265 max 203 min
Histogram: 1 1 3 1 3 5 7 7 2 2
Nghost:    5774.5 ave 6042 max 5550 min
Histogram: 8 0 7 1 0 3 5 0 3 5
Neighs:    101168 ave 119074 max 86622 min
Histogram: 3 5 4 2 5 2 4 4 2 1

Total # of neighbors = 3237391
Ave neighs/atom = 422.195
Ave special neighs/atom = 1.94366
Neighbor list builds = 4
Dangerous builds = 0
write_data $k_mini.data
write_data 1_mini.data
PPPM initialization ...
  extracting TIP4P info from pair style
  using 12-bit tables for long-range coulomb (../kspace.cpp:332)
  G vector (1/distance) = 0.250273
  grid = 20 36 20
  stencil order = 5
  estimated absolute RMS force accuracy = 0.0284403
  estimated relative force accuracy = 8.56472e-05
  using single precision MKL FFT
  3d grid and FFT values/proc = 3264 500

# ----------------- Constraints Section -----------------
timestep ${dt}
timestep 1
fix shaketip4p 	 water   shake 0.0001 10 0 b 1 a 1
  0 = # of size 2 clusters
  0 = # of size 3 clusters
  0 = # of size 4 clusters
  2484 = # of frozen angles
  find clusters CPU = 0.00519204 secs

# ----------------- NPT Relaxtion Section -----------------

velocity all create ${T0} $k4928459 rot yes dist gaussian
velocity all create 287 $k4928459 rot yes dist gaussian
velocity all create 287 14928459 rot yes dist gaussian

reset_timestep 0
thermo 1000
thermo_style  custom step density temp press pxx pyy pzz pe ke etotal
dump 1 all custom 1000 traj_npt_relax_${T0}_$k.lammpstrj id mol element type x y z
dump 1 all custom 1000 traj_npt_relax_287_$k.lammpstrj id mol element type x y z
dump 1 all custom 1000 traj_npt_relax_287_1.lammpstrj id mol element type x y z
dump_modify 1 element O H C
fix   fxnpt all npt temp ${T0} ${T0} ${Tdamp} iso ${P0} ${P0} ${Pdamp}
fix   fxnpt all npt temp 287 ${T0} ${Tdamp} iso ${P0} ${P0} ${Pdamp}
fix   fxnpt all npt temp 287 287 ${Tdamp} iso ${P0} ${P0} ${Pdamp}
fix   fxnpt all npt temp 287 287 100 iso ${P0} ${P0} ${Pdamp}
fix   fxnpt all npt temp 287 287 100 iso 138.169257340242 ${P0} ${Pdamp}
fix   fxnpt all npt temp 287 287 100 iso 138.169257340242 138.169257340242 ${Pdamp}
fix   fxnpt all npt temp 287 287 100 iso 138.169257340242 138.169257340242 1000

run  ${Lr}
run  100000
PPPM initialization ...
  extracting TIP4P info from pair style
  using 12-bit tables for long-range coulomb (../kspace.cpp:332)
  G vector (1/distance) = 0.250273
  grid = 20 36 20
  stencil order = 5
  estimated absolute RMS force accuracy = 0.0284403
  estimated relative force accuracy = 8.56472e-05
  using single precision MKL FFT
  3d grid and FFT values/proc = 3264 500
Per MPI rank memory allocation (min/avg/max) = 9.826 | 10.08 | 10.24 Mbytes
Step Density Temp Press Pxx Pyy Pzz PotEng KinEng TotEng 
       0   0.88261128          287   -2925.2238    -5686.675   -2470.4044    -618.5919   -37499.797    4434.0175    -33065.78 
    1000   0.92392153     299.1941   -24.007884    964.35135   -1375.3506    338.97557   -32499.309    4622.4108   -27876.898 
    2000   0.92566203    283.81278    -86.99716   -168.29067   -679.33405    586.63324   -32995.773    4384.7765   -28610.996 
    3000   0.93369001    289.04897    99.683812    803.61101   -1444.8499    940.29036   -33313.765    4465.6733   -28848.091 
    4000   0.93202041    287.39329    226.87971    355.31965   -623.65494    948.97443   -33516.599    4440.0938   -29076.505 
    5000   0.92980582    285.40371    13.141865   -47.078059   -898.48565     984.9893   -33674.374    4409.3557   -29265.018 
    6000   0.93239261    284.57593    268.98223    385.80602   -733.66269    1154.8034   -33845.032    4396.5668   -29448.465 
    7000   0.93373337    289.33146   -23.813403    104.10381   -548.44653    372.90251   -33958.747    4470.0376   -29488.709 
    8000   0.93815095    290.36621    185.65678    338.99597   -720.36588    938.34025   -33948.557    4486.0239   -29462.533 
    9000   0.93216827    285.80863   -61.700907    427.81289   -858.51637    245.60076   -34045.659    4415.6114   -29630.047 
   10000   0.93268427    294.75179    223.09113     211.3601   -967.99923    1425.9125   -34151.002    4553.7792   -29597.222 
   11000   0.93065017    283.27302   -216.29875    233.56829   -1503.7086    621.24409   -34192.485    4376.4375   -29816.047 
   12000   0.93243532    287.91791   -36.244544     729.4693   -872.99518    34.792247   -34183.565    4448.1988   -29735.367 
   13000   0.93124403    291.17879    150.63013    157.58391   -410.89566    705.20213   -34266.902    4498.5779   -29768.324 
   14000   0.93574403    283.20484    135.55815     608.8662   -459.47252    257.28078   -34395.459    4375.3841   -30020.075 
   15000   0.93402174    282.84754    233.04033    805.52955   -582.59568     476.1871   -34381.746    4369.8639   -30011.882 
   16000   0.93176399    289.85179    258.18775     770.0364   -921.58046    926.10731   -34318.169    4478.0763   -29840.093 
   17000   0.93258108    283.83243   -114.53906    465.82081    -1224.416    414.97804   -34355.819      4385.08   -29970.739 
   18000   0.93350742    289.68936   -46.051014    304.88118   -469.17071    26.136485   -34273.903    4475.5669   -29798.336 
   19000    0.9348078      282.675    102.09174    511.53913    -891.0331    685.76918   -34471.136    4367.1984   -30103.938 
   20000   0.93271785    293.29897   -35.303074     321.9282   -708.43876    280.60134   -34434.043    4531.3338   -29902.709 
   21000   0.93434255    285.30449    165.35476    289.46173   -877.80999    1084.4125   -34519.288    4407.8227   -30111.465 
   22000   0.92833872    292.74964   -50.736843    248.84554   -1006.8372    605.78117   -34411.381    4522.8468   -29888.534 
   23000   0.93023231    281.33912    447.05556    886.37336   -420.60462    875.39795    -34284.53    4346.5595    -29937.97 
   24000   0.93440608    284.16834    51.985928    317.24683    -649.4782    488.18916   -34504.099    4390.2697   -30113.829 
   25000   0.94012371    287.84407    414.69863    399.23274   -193.64344    1038.5066   -34500.608     4447.058    -30053.55 
   26000   0.93032654    284.10608   -323.44971   -203.53934   -1231.2028    464.39299   -34436.516    4389.3079   -30047.208 
   27000   0.93444617    282.68496    355.76341    1139.3193   -862.95358    790.92447   -34506.849    4367.3521   -30139.496 
   28000   0.93482995    286.85878    24.636571    444.74383   -770.67466    399.84054   -34398.807    4431.8358   -29966.971 
   29000   0.93029498    283.18859    426.51975    966.09964   -644.94062    958.40022   -34544.279    4375.1331   -30169.146 
   30000   0.93338158     290.6881    155.64275    610.93938   -1058.6554    914.64428   -34390.267     4490.997    -29899.27 
   31000   0.93046249    285.94561    148.82803    784.44588   -1171.1407    833.17885   -34520.117    4417.7277   -30102.389 
   32000   0.93341314    285.00789    486.11205    899.38704   -120.89032    679.83942   -34511.044    4403.2404   -30107.803 
   33000   0.92960631    286.87004    18.581704    478.69196   -1262.9152    839.96831   -34476.062    4432.0097   -30044.053 
   34000   0.92771295    280.80109   -30.713917    446.13737   -1044.7861    506.50693   -34439.765    4338.2473   -30101.518 
   35000   0.92689591    292.41253   -54.722004    74.709394   -1055.0726    816.19721   -34550.071    4517.6386   -30032.432 
   36000   0.93132548    282.88102    384.11232    973.49562   -779.96251    958.80385   -34568.218    4370.3812   -30197.837 
   37000   0.93013273    288.55823    325.93175    823.73542   -845.21525    999.27509   -34544.013    4458.0915   -30085.921 
   38000   0.92987498    288.56707   -188.87861    17.834419   -1283.5822    699.11192   -34670.099    4458.2281   -30211.871 
   39000   0.93099859    292.11648    581.06068    1569.9279    -467.6903    640.94446   -34467.381    4513.0648   -29954.316 
   40000   0.92986966    284.73111   -57.091637    864.12295   -1411.1946     375.7967   -34425.954    4398.9642   -30026.989 
   41000   0.93002155    294.44463     253.9902    675.28989   -950.65668    1037.3374    -34411.91    4549.0337   -29862.876 
   42000   0.92778034    291.60306   -418.71964    314.69695   -1372.2397   -198.61618   -34612.591    4505.1327   -30107.458 
   43000   0.92835534    284.34093   -209.37215      448.853    -1601.794    524.82455   -34506.575    4392.9362   -30113.639 
   44000   0.93128565    284.37749    97.925692    582.56886   -959.22608    670.43429   -34588.583     4393.501   -30195.082 
   45000   0.92641535    288.98391    369.90587    1125.8222   -491.77421    475.66958   -34528.161     4464.668   -30063.493 
   46000   0.92593792    284.49586    49.638593     870.8477   -1182.6565     460.7246   -34396.162    4395.3298   -30000.832 
   47000   0.93143853    284.68897    263.69166    882.99268   -919.10677    827.18907   -34490.593    4398.3132    -30092.28 
   48000   0.93145423    279.10583    290.25872    1280.1158   -832.98949    423.64988   -34603.304    4312.0563   -30291.248 
   49000    0.9286522    292.98979   -112.16979    268.47642   -873.86281    268.87701   -34532.162     4526.557   -30005.605 
   50000   0.93420946    287.54094    501.05651     1036.991   -343.60957    809.78811   -34610.208    4442.3748   -30167.833 
   51000   0.93386512    282.91488    88.569196    512.67617   -691.00651    444.03793   -34734.531    4370.9043   -30363.627 
   52000   0.93715571    284.59635    837.37961    982.34319     95.67616    1434.1195   -34736.934    4396.8822   -30340.052 
   53000   0.92577846    288.60605   -275.14463    684.84143    -1579.085     68.80964   -34625.463    4458.8303   -30166.633 
   54000   0.92494606    285.06926   -94.093657    270.13505   -1201.9746    649.55857   -34650.582    4404.1886   -30246.393 
   55000   0.92543469    291.34715    261.64348    786.70035   -1053.9807    1052.2108   -34457.014     4501.179   -29955.835 
   56000   0.93027672    287.94425    449.46886    1116.8322   -748.58772    980.16207   -34511.828    4448.6058   -30063.222 
   57000   0.93085363    287.85905    156.73701    874.58263   -859.36915    454.99754    -34657.85    4447.2895    -30210.56 
   58000   0.92863679    287.99336    168.36119    532.43561   -1220.4587    1193.1066   -34504.342    4449.3645   -30054.977 
   59000   0.92627135    289.00269    42.090036    526.86102   -556.06714    155.47622   -34710.814    4464.9581   -30245.856 
   60000   0.93075587    292.84823     201.8333    1068.0853   -1261.7805    799.19508   -34582.074    4524.3699   -30057.704 
   61000   0.93089404    285.94921    342.64021    491.36373   -504.24521    1040.8021   -34560.098    4417.7833   -30142.315 
   62000   0.93045879    289.72295    54.117057    344.51391   -1027.1967    845.03399   -34641.104    4476.0859   -30165.018 
   63000   0.92663441    286.71531    236.71176    672.81726   -790.23298    827.55099   -34663.872    4429.6192   -30234.253 
   64000   0.93449421    288.04559    370.29262    528.97528    -533.1604     1115.063   -34721.732    4450.1715    -30271.56 
   65000   0.92343044    287.13718   -220.05178    322.37319   -1163.2881    180.75957   -34522.375    4436.1369   -30086.238 
   66000      0.93256     284.9709     258.4814     561.2467   -888.52541    1102.7229   -34643.731    4402.6689   -30241.062 
   67000   0.92763239    283.99647    370.31869    759.57698   -556.31197    907.69107   -34582.531    4387.6144   -30194.917 
   68000   0.92677173    282.65686    249.09872    417.01031   -914.88625    1245.1721   -34702.266    4366.9181   -30335.348 
   69000   0.92834144    283.44727     191.5426    430.24269   -1020.6954    1165.0805   -34583.091    4379.1296   -30203.961 
   70000   0.92936259    287.05713    344.02852    798.86937   -709.25292     942.4691   -34621.999    4434.9002   -30187.098 
   71000   0.93597241    286.91673      775.755    1108.0582    75.113373    1144.0934    -34699.45    4432.7311   -30266.719 
   72000   0.92841585    282.03788   -299.58237    365.83342   -1639.0079    374.42739   -34560.815    4357.3552    -30203.46 
   73000   0.92563077    289.72174   -286.45506    20.195094   -995.03171    115.47143    -34689.92    4476.0671   -30213.853 
   74000   0.92537445    285.52835   -131.15778    432.75258   -876.50119    50.275279   -34573.104    4411.2812   -30161.823 
   75000    0.9299487     286.2149   -97.702427    5.7837254   -942.73086    643.83985    -34621.07    4421.8882   -30199.182 
   76000   0.92731288    285.93356   -101.51181    506.64045   -1113.6296    302.45369   -34601.506    4417.5415   -30183.965 
   77000   0.92698054    286.09878    73.241732    568.24128   -1099.7524    751.23635   -34713.665    4420.0941   -30293.571 
   78000   0.92748669    285.69007    136.24315    545.09767   -1213.9228    1077.5546   -34566.984    4413.7797   -30153.205 
   79000   0.92625027      279.836   -165.90994    705.93497   -1415.1016    211.43685   -34550.555    4323.3371   -30227.218 
   80000   0.92979391    290.47866    207.54668    303.24739   -617.37105    936.76369   -34685.988    4487.7612   -30198.227 
   81000    0.9301412    289.45315    71.891627    655.21528   -1135.6134    696.07299   -34646.231    4471.9175   -30174.314 
   82000   0.92991602    283.53939     295.2355    771.50852   -1044.0139    1158.2119   -34698.271    4380.5526   -30317.718 
   83000   0.93032934    287.27338    279.85841     502.8878   -563.47448    900.16191   -34557.117    4438.2412   -30118.876 
   84000   0.93213254    288.83155    513.43569    1316.2949   -870.88485     1094.897   -34643.193    4462.3142   -30180.879 
   85000   0.92988407    291.03133    373.52137    1109.4529   -550.23803    561.34926   -34578.623    4496.2997   -30082.324 
   86000   0.92658219    293.75889    23.997158    595.12306   -1096.2512     573.1196   -34608.871    4538.4393   -30070.431 
   87000   0.92882993    284.52524    307.94453    792.28929   -901.15613    1032.7004   -34546.739    4395.7837   -30150.955 
   88000   0.92665913    280.88476     87.78846    636.99103   -1392.2643    1018.6386   -34587.912    4339.5398   -30248.372 
   89000   0.92834758    287.85216     40.51183    464.38662   -922.26032    579.40919    -34623.15    4447.1829   -30175.967 
   90000   0.93103133    287.84472    587.56303    1092.8636   -391.48627    1061.3118   -34715.673     4447.068   -30268.605 
   91000   0.93166256    289.64288   -113.63124    161.61882   -1297.2065    794.69398   -34769.983    4474.8488   -30295.134 
   92000   0.92466988     289.9064   -357.82361    428.99881   -1664.6195    162.14991   -34601.525      4478.92   -30122.605 
   93000   0.92257189    285.89361   -66.850785    573.19531   -909.24254    135.49487   -34602.054    4416.9244   -30185.129 
   94000   0.92681653    285.96658    222.70745    1273.8166   -1007.0545    401.36017   -34615.537    4418.0517   -30197.485 
   95000   0.93020971    285.23748    45.670139    891.28443   -1148.1988    393.92476    -34721.12    4406.7874   -30314.333 
   96000   0.93286571    289.34215    416.14377    1220.8927   -761.46117    788.99981   -34677.306    4470.2027   -30207.104 
   97000    0.9324305    289.65572    556.38327     1275.593   -528.89603    922.45279   -34705.038    4475.0471   -30229.991 
   98000    0.9252352    285.77023   -132.21254    688.43112   -1368.7005    283.63173   -34758.734    4415.0181   -30343.716 
   99000   0.92963391     293.7466    250.42795    611.29425   -576.93034    716.91994   -34670.483    4538.2495   -30132.233 
  100000   0.92982039    287.74066       1.9286     361.7192   -995.46255    639.52915   -34742.185    4445.4604   -30296.724 
Loop time of 752.454 on 32 procs for 100000 steps with 7668 atoms

Performance: 11.482 ns/day, 2.090 hours/ns, 132.898 timesteps/s
99.2% CPU use with 32 MPI tasks x 1 OpenMP threads

MPI task timing breakdown:
Section |  min time  |  avg time  |  max time  |%varavg| %total
---------------------------------------------------------------
Pair    | 415.17     | 491        | 569.86     | 212.9 | 65.25
Bond    | 0.036125   | 0.050208   | 0.12433    |   7.4 |  0.01
Kspace  | 112.88     | 192.22     | 268.64     | 342.0 | 25.55
Neigh   | 16.959     | 17.054     | 17.156     |   1.3 |  2.27
Comm    | 17.905     | 19.406     | 20.713     |  19.8 |  2.58
Output  | 0.21156    | 0.21224    | 0.23116    |   0.7 |  0.03
Modify  | 27.207     | 29.179     | 30.726     |  18.0 |  3.88
Other   |            | 3.336      |            |       |  0.44

Nlocal:    239.625 ave 263 max 220 min
Histogram: 4 4 5 1 2 3 7 1 3 2
Nghost:    5851.94 ave 6050 max 5660 min
Histogram: 8 1 7 0 0 0 0 6 3 7
Neighs:    105632 ave 124740 max 89718 min
Histogram: 4 4 2 4 4 2 4 5 1 2

Total # of neighbors = 3380210
Ave neighs/atom = 440.82
Ave special neighs/atom = 1.94366
Neighbor list builds = 4337
Dangerous builds = 0

unfix fxnpt
undump 1
write_data $k_npt_relax.data
write_data 1_npt_relax.data
PPPM initialization ...
  extracting TIP4P info from pair style
  using 12-bit tables for long-range coulomb (../kspace.cpp:332)
  G vector (1/distance) = 0.248195
  grid = 20 32 20
  stencil order = 5
  estimated absolute RMS force accuracy = 0.0330813
  estimated relative force accuracy = 9.96234e-05
  using single precision MKL FFT
  3d grid and FFT values/proc = 3060 400

# ----------------- NVT dissociation Section -----------------

reset_timestep 0
thermo 1000
thermo_style  custom step density temp press pxx pyy pzz pe ke etotal
dump 1 all custom 6000 traj_nvt_dissociation_${T1}_$k.lammpstrj id mol element type x y z
dump 1 all custom 6000 traj_nvt_dissociation_290_$k.lammpstrj id mol element type x y z
dump 1 all custom 6000 traj_nvt_dissociation_290_1.lammpstrj id mol element type x y z
dump_modify 1 element O H C

fix   fxnvt all nvt temp ${T1} ${T1} ${Tdamp}
fix   fxnvt all nvt temp 290 ${T1} ${Tdamp}
fix   fxnvt all nvt temp 290 290 ${Tdamp}
fix   fxnvt all nvt temp 290 290 100

run  ${Lt}
run  6000000
PPPM initialization ...
  extracting TIP4P info from pair style
  using 12-bit tables for long-range coulomb (../kspace.cpp:332)
  G vector (1/distance) = 0.248195
  grid = 20 32 20
  stencil order = 5
  estimated absolute RMS force accuracy = 0.0330813
  estimated relative force accuracy = 9.96234e-05
  using single precision MKL FFT
  3d grid and FFT values/proc = 3060 400
Per MPI rank memory allocation (min/avg/max) = 10.2 | 10.21 | 10.23 Mbytes
Step Density Temp Press Pxx Pyy Pzz PotEng KinEng TotEng 
       0   0.92982039    287.74066   -2.1934719    357.30026   -999.17853    635.29785    -34741.68    4445.4604    -30296.22 
    1000   0.92982039    292.29625   -66.785409    78.448883   -773.71254    494.90743   -34625.944    4515.8422   -30110.102 
    2000   0.92982039    291.45811    107.97118    809.97485   -1337.5103    851.44895   -34640.047    4502.8934   -30137.154 
    3000   0.92982039    284.60873    92.095477    964.72536   -878.80697    190.36804   -34705.513    4397.0736   -30308.439 
    4000   0.92982039    287.42379    251.52343    1421.5344   -836.78168    169.81758    -34684.03    4440.5649   -30243.466 
    5000   0.92982039    290.23617    35.133987    197.76263   -832.14172    739.78105   -34623.938     4484.015   -30139.923 
    6000   0.92982039     287.6058    379.54456    1231.1667   -817.06273    724.52965   -34627.945    4443.3769   -30184.568 
    7000   0.92982039     289.2054    449.08305    1304.2237   -240.73133    283.75676   -34688.817    4468.0899   -30220.727 
    8000   0.92982039    287.13931    413.96136    768.55308   -173.73564    647.06664   -34599.857    4436.1699   -30163.687 
    9000   0.92982039    281.97158    228.51058    724.47645    -613.4746     574.5299    -34650.84    4356.3308    -30294.51 
   10000   0.92982039    292.07645    284.47182    1022.6782   -686.45799     517.1952   -34577.573    4512.4463   -30065.127 
   11000   0.92982039     288.6828    553.46115     1014.156   -668.59895    1314.8264   -34580.613     4460.016   -30120.597 
   12000   0.92982039    292.47682   -67.203451    803.80591   -1278.5252    273.10893   -34527.342     4518.632    -30008.71 
   13000   0.92982039    287.84101    80.318492    508.42898   -671.70969    404.23619   -34575.142    4447.0108   -30128.131 
   14000   0.92982039    292.94166    -151.1852    689.95433   -1146.7593    3.2493233    -34469.73    4525.8134   -29943.917 
   15000   0.92982039    291.09324    511.81628    993.15798   -368.25044    910.54131   -34453.315    4497.2563   -29956.058 
   16000   0.92982039    285.37686    247.17339    448.77456   -299.97481    592.72041   -34583.754    4408.9408   -30174.814 
   17000   0.92982039    292.46014   -22.423248    362.35692   -723.78435    294.15769   -34553.324    4518.3741    -30034.95 
   18000   0.92982039    294.31586    193.37011    524.90583   -494.13793    549.34243   -34610.417    4547.0441   -30063.373 
   19000   0.92982039    286.72544    594.35688    1199.2025   -333.53757    917.40568   -34631.511    4429.7758   -30201.736 
   20000   0.92982039    291.74805    215.91087      848.497   -748.04107    547.27669   -34466.241    4507.3727   -29958.869 
   21000   0.92982039    293.66458   -22.576301    993.99812   -1691.7136    629.98661   -34583.416    4536.9823   -30046.434 
   22000   0.92982039    285.47457    136.45044     977.1107   -1258.0848    690.32541   -34590.012    4410.4504   -30179.562 
   23000   0.92982039    288.84652    610.66429    724.51486   -111.67606    1219.1541   -34556.124    4462.5455   -30093.578 
   24000   0.92982039    287.51212    663.93229    1134.7737    -198.9201    1055.9433   -34605.211    4441.9296   -30163.281 
   25000   0.92982039    287.72641    10.060417    593.83145   -1042.4146    478.76439   -34688.532    4445.2403   -30243.292 
   26000   0.92982039    288.32989    309.26075    685.00325   -787.58349    1030.3625   -34440.732    4454.5637   -29986.169 
   27000   0.92982039    288.22645   -84.507313    463.44383   -1081.3726    364.40679   -34551.199    4452.9656   -30098.233 
   28000   0.92982039    287.89504     223.1429    645.89119   -986.64491    1010.1824   -34471.111    4447.8455   -30023.266 
   29000   0.92982039    289.87711     315.5603    1171.6419   -814.97307    590.01203   -34599.582    4478.4676   -30121.114 
   30000   0.92982039    283.84637    230.35323    422.47847   -767.82386    1036.4051    -34654.28    4385.2954   -30268.985 
   31000   0.92982039    290.77319    592.40976    673.74043   -133.14988    1236.6387   -34642.182    4492.3115   -30149.871 
   32000   0.92982039    292.25775    432.62407    1075.9999   -749.43928    971.31163   -34484.717    4515.2474    -29969.47 
   33000   0.92982039    290.30221     139.3597    516.22353   -765.23127    667.08684   -34537.443    4485.0352   -30052.408 
   34000   0.92982039     289.7655    556.25497    1130.3735   -814.02003    1352.4114   -34402.617    4476.7433   -29925.874 
   35000   0.92982039     291.5021    605.76056    906.59005   -521.74857    1432.4402   -34363.494    4503.5728   -29859.922 
   36000   0.92982039    292.39733    164.42428     570.4284   -823.60063    746.44507   -34406.302    4517.4037   -29888.898 
   37000   0.92982039    288.17662    46.390627    418.45929   -1028.0258    748.73841   -34489.046    4452.1958    -30036.85 
   38000   0.92982039    287.27706    427.09514    734.73314   -519.93703    1066.4893   -34463.993     4438.298   -30025.695 
   39000   0.92982039    295.34334   -273.69412    278.03409    -1347.445    248.32854   -34474.751    4562.9183   -29911.832 
   40000   0.92982039    290.73514   -96.901976    447.24561   -1222.6912    484.73967    -34613.08    4491.7237   -30121.356 
   41000   0.92982039    288.23153   -210.85172    304.21163   -1575.7338    638.96704   -34443.205    4453.0442   -29990.161 
   42000   0.92982039    288.56401    261.68933    541.47104   -918.62127    1162.2182   -34513.381    4458.1807     -30055.2 
   43000   0.92982039    287.41627    220.89349    789.41381   -941.10084     814.3675   -34422.074    4440.4488   -29981.625 
   44000   0.92982039    285.88801    311.24712    921.84667   -911.65341     923.5481   -34525.187    4416.8377   -30108.349 
   45000   0.92982039     289.4231    308.57571    591.36179   -392.83846     727.2038   -34543.603    4471.4534    -30072.15 
   46000   0.92982039    291.04882    127.74328    541.13332   -1195.6394    1037.7359   -34690.888      4496.57   -30194.318 
   47000   0.92982039    294.60503     544.3844    1377.8532   -398.10116     653.4011   -34510.949    4551.5118   -29959.437 
   48000   0.92982039    291.41149    180.32601    691.48996   -959.09605    808.58413   -34584.269     4502.173   -30082.096 
   49000   0.92982039    289.72236     410.3645     802.9912   -809.89617    1237.9985   -34534.391    4476.0768   -30058.315 
   50000   0.92982039     288.8119    113.55302    634.46806   -1051.1487    757.33972   -34600.614    4462.0106   -30138.603 
   51000   0.92982039    289.88351   -178.63364    363.96061   -1384.8153    484.95378   -34531.566    4478.5664   -30052.999 
   52000   0.92982039    290.73762   -55.306853   -121.53531   -781.42882    737.04357   -34586.193    4491.7621   -30094.431 
   53000   0.92982039    292.11794   -6.2954977     393.5362   -1217.5982    805.17548   -34523.104    4513.0873   -30010.017 
   54000   0.92982039    284.54595   -131.09673   -129.32226   -959.05422    695.08629   -34647.077    4396.1037   -30250.973 
   55000   0.92982039    286.89244    31.930512    570.60102   -919.27771    444.46823   -34502.814    4432.3558   -30070.458 
   56000   0.92982039    289.83624     193.6237    525.83516   -922.36869    977.40464   -34473.909    4477.8361   -29996.073 
   57000   0.92982039    288.84503    404.25865    510.77038   -260.72061    962.72619   -34583.114    4462.5224   -30120.591 
   58000   0.92982039     289.6814    97.555648    346.56284   -1015.6919    961.79605   -34547.369     4475.444   -30071.925 
   59000   0.92982039    286.05317    255.77532    545.56689    -734.2264    955.98546   -34552.593    4419.3895   -30133.204 
   60000   0.92982039    291.03896     297.9474    1083.5786   -1108.6836    918.94714   -34475.846    4496.4177   -29979.428 
   61000   0.92982039    291.99339   -23.503374    461.82064   -1016.2087    483.87799   -34593.378    4511.1631   -30082.214 
   62000   0.92982039    287.85899    562.19104    1223.6706   -704.11148     1167.014   -34436.541    4447.2885   -29989.253 
   63000   0.92982039    290.14161    491.49715    849.42929   -490.60791    1115.6701   -34634.066    4482.5539   -30151.512 
   64000   0.92982039    287.60385    366.59604    500.47096   -414.96293    1014.2801   -34511.812    4443.3468   -30068.465 
   65000   0.92982039    287.35159    271.87082    605.27843   -476.44876    686.78279    -34624.82    4439.4495    -30185.37 
   66000   0.92982039    291.96458    216.57268    139.58682   -397.45367    907.58489   -34553.636     4510.718   -30042.918 
   67000   0.92982039    286.69696    258.32976     703.6068   -946.76346     1018.146   -34546.311    4429.3358   -30116.975 
   68000   0.92982039    297.84862    613.64616    1051.9469   -743.22249    1532.2141   -34392.196    4601.6237   -29790.573 
   69000   0.92982039    291.59485    362.25404     652.5462    -403.0456    837.26154   -34665.609    4505.0058   -30160.603 
   70000   0.92982039    295.36624    104.26329    803.52129   -1119.3731    628.64166   -34503.143     4563.272   -29939.871 
   71000   0.92982039     289.8417    88.953683    587.69794   -817.93595    497.09906   -34617.207    4477.9205   -30139.287 
   72000   0.92982039    287.52933    419.03685    856.77551   -641.16868    1041.5037    -34551.97    4442.1955   -30109.774 
   73000   0.92982039    291.20324    476.30108    852.55568   -341.04247    917.39004   -34576.548    4498.9556   -30077.592 
   74000   0.92982039    290.94297    742.73989    1119.0932   -623.27538    1732.4019   -34655.919    4494.9346   -30160.985 
   75000   0.92982039    293.79034    127.96407    504.29086   -442.43749    322.03883   -34572.707    4538.9252   -30033.781 
   76000   0.92982039    289.18566    277.18446    932.41534   -520.95562    420.09368   -34598.289    4467.7849   -30130.504 
   77000   0.92982039      287.518    330.89732    872.05497   -841.09374    961.73074   -34584.051    4442.0204   -30142.031 
   78000   0.92982039    291.96004    235.12877    448.21305   -416.44749    673.62074   -34580.636    4510.6479   -30069.988 
   79000   0.92982039    294.52591    468.74754    1179.8383   -808.64473    1035.0491   -34630.834    4550.2894   -30080.544 
   80000   0.92982039     288.8324    540.92934    847.77842   -218.35593    993.36553   -34595.596    4462.3273   -30133.269 
   81000   0.92982039    288.07899    80.275586    955.66328   -829.30153    114.46501   -34451.515    4450.6874   -30000.827 
   82000   0.92982039    292.38167    485.54576    914.45989   -512.94089    1055.1183   -34434.601    4517.1618   -29917.439 
   83000   0.92982039    290.33921    152.25117    487.35814    -842.8515    812.24686    -34546.07    4485.6068   -30060.463 
   84000   0.92982039    292.00927   -149.09146    362.35651    -1388.952    579.32115   -34460.401    4511.4084   -29948.993 
   85000   0.92982039    285.25854   -14.682798    886.33235   -1142.1291    211.74837   -34482.968    4407.1128   -30075.856 
   86000   0.92982039    293.03363     159.5275    1131.0567   -952.01338    299.53917   -34513.152    4527.2344   -29985.917 
   87000   0.92982039    286.85271   -197.68563    725.46882   -1085.3977   -233.12799   -34419.119     4431.742   -29987.377 
   88000   0.92982039     287.3378    116.85302    580.59499   -851.49052    621.45458   -34401.031    4439.2364   -29961.795 
   89000   0.92982039    288.17451      229.312    579.29861   -482.22039    590.85778   -34628.973    4452.1632   -30176.809 
   90000   0.92982039    289.89954    -20.52169    818.01636   -1311.6218    432.04039   -34460.134    4478.8141    -29981.32 
   91000   0.92982039    292.37647   -90.418341    494.91455   -1346.1794    580.00978   -34600.753    4517.0816   -30083.671 
   92000   0.92982039    290.18349   -39.535275    1154.8311    -1291.393    17.956064   -34456.125     4483.201   -29972.924 
   93000   0.92982039    294.53735   -400.28194    326.24892   -1738.2685    211.17378   -34392.774    4550.4661   -29842.308 
   94000   0.92982039    287.59637    21.856231    499.43619   -1099.2586    665.39108   -34482.931    4443.2311     -30039.7 
   95000   0.92982039    295.38985   -98.974576    462.48625    -1495.366    735.95602   -34469.147    4563.6368    -29905.51 
   96000   0.92982039    292.76322   -200.63239    507.94774   -1440.3224    330.47753   -34625.745    4523.0566   -30102.689 
   97000   0.92982039    282.37441    131.04522    982.13288   -811.61155    222.61432   -34404.668    4362.5543   -30042.113 
   98000   0.92982039    289.55214   -211.51754    237.82324   -1142.9486    270.57276   -34388.229     4473.447   -29914.782 
   99000   0.92982039    292.01045   -398.20052   -113.76593   -1268.2162    187.38052   -34474.068    4511.4266   -29962.641 
  100000   0.92982039    296.89947   -112.30545    526.69489    -1401.549    537.93777   -34385.557    4586.9597   -29798.598 
  101000   0.92982039    294.02991    -237.0909     405.8701   -1377.2661    260.12329   -34514.881    4542.6264   -29972.255 
  102000   0.92982039    283.76185    198.71777    860.98031   -829.04437    564.21738   -34483.008    4383.9897   -30099.018 
  103000   0.92982039    288.48389   -55.041021    412.13633   -888.44161    311.18221   -34481.106     4456.943   -30024.163 
  104000   0.92982039    292.34608    300.94489    657.08062   -505.90292    751.65699   -34542.046    4516.6121   -30025.434 
  105000   0.92982039     290.4116   -124.35078    48.248449   -1013.1405    591.83973   -34542.998    4486.7252   -30056.273 
  106000   0.92982039    288.26878    472.14917    946.36442   -501.44551    971.52861   -34617.397    4453.6196   -30163.777 
  107000   0.92982039    295.97719   -165.77933    341.14546   -1233.1959    394.71243   -34513.255     4572.711   -29940.544 
  108000   0.92982039    290.55394    240.73038      1268.09   -1008.7358    462.83697   -34478.475    4488.9242   -29989.551 
  109000   0.92982039    291.20741     137.8665    595.60706   -697.63481    515.62726   -34583.599      4499.02   -30084.579 
  110000   0.92982039    287.60006    303.48302    949.99293    -956.6951    917.15122   -34603.957    4443.2882   -30160.668 
  111000   0.92982039    291.12451    521.85467    1723.2417   -988.89429    831.21661   -34494.431    4497.7394   -29996.691 
  112000   0.92982039    285.11584    205.78494    792.28492   -789.03023    614.10014   -34589.968    4404.9081    -30185.06 
  113000   0.92982039    289.20691    314.89859     461.5336   -279.27744    762.43959   -34554.496    4468.1134   -30086.383 
  114000   0.92982039    291.21112    392.38706    839.83055   -580.93673    918.26735   -34430.977    4499.0774     -29931.9 
  115000   0.92982039     287.9391    67.479994    496.59834   -976.34154    682.18319   -34476.266    4448.5263   -30027.739 
  116000   0.92982039    286.44317    273.78776    772.04006     -836.684    886.00723   -34661.338    4425.4148   -30235.923 
  117000   0.92982039    293.80982    162.20811    879.80857   -1038.3322    645.14798   -34634.263    4539.2261   -30095.037 
  118000   0.92982039    287.21882    571.63779    1381.5411   -568.69378    902.06605    -34572.21    4437.3982   -30134.812 
  119000   0.92982039    289.64492   -12.248885    366.42632   -1032.6188    629.44584   -34574.215    4474.8804   -30099.334 
  120000   0.92982039    289.99227    151.08525    903.05883   -1293.7311    843.92802   -34511.234    4480.2467   -30030.987 
  121000   0.92982039    290.99777    29.005638    1034.5573   -1162.1285    214.58808   -34487.171    4495.7812    -29991.39 
  122000   0.92982039    288.05565    393.56184    995.04421    -471.6612    657.30251   -34630.241    4450.3268   -30179.914 
  123000   0.92982039    290.04222    635.68075    1182.1963   -472.04774    1196.8937   -34529.111    4481.0184   -30048.092 
  124000   0.92982039    292.95801    221.80939     952.4287   -726.49394    439.49341   -34564.713     4526.066   -30038.647 
  125000   0.92982039    296.74857    38.638204    672.18498   -1082.9741    526.70374   -34552.996    4584.6284   -29968.367 
  126000   0.92982039    291.77553   -79.847553    180.88852   -741.64156    321.21039   -34674.767    4507.7973   -30166.969 
  127000   0.92982039    290.49002    292.24478     869.8963   -1237.2854    1244.1235   -34661.444    4487.9368   -30173.507 
  128000   0.92982039    296.95855    395.97585    1086.9715   -681.62382    782.57987   -34537.611    4587.8725   -29949.739 
  129000   0.92982039    288.14205    182.01159      203.253   -865.21686    1207.9986   -34576.045    4451.6617   -30124.383 
  130000   0.92982039    291.61391    150.50254    895.34819   -866.13386     422.2933    -34559.71    4505.3004    -30054.41 
  131000   0.92982039    288.60445    130.72051    514.33039   -917.32278    795.15394   -34594.068    4458.8055   -30135.263 
  132000   0.92982039    293.45858    249.49093    565.80371   -457.68158    640.35067    -34542.26    4533.7996   -30008.461 
  133000   0.92982039    286.85063    289.06757    1162.3026   -920.98944    625.88954   -34511.752    4431.7098   -30080.042 
  134000   0.92982039    285.27691    291.14999    403.17668   -913.23845    1383.5117   -34623.088    4407.3966   -30215.692 
  135000   0.92982039    289.05357    433.29327     559.2633   -484.98815    1225.6046   -34503.546    4465.7443   -30037.802 
  136000   0.92982039    285.67032    571.11371    894.27011   -319.41102     1138.482   -34574.734    4413.4746   -30161.259 
  137000   0.92982039    291.86115    378.68151    950.46055   -867.53943    1053.1234   -34446.343      4509.12   -29937.223 
  138000   0.92982039    291.37296    183.14318    834.28631   -758.20843    473.35167   -34607.994    4501.5777   -30106.416 
  139000   0.92982039    286.43899    152.67254    373.94486   -873.13664    957.20941   -34367.846    4425.3501   -29942.496 
  140000   0.92982039     292.6729    748.42685    1589.8009   -385.11157    1040.5912   -34572.443    4521.6612   -30050.782 
  141000   0.92982039    293.95593    389.75894    1012.0013   -903.93371    1061.2092   -34550.385    4541.4834   -30008.902 
  142000   0.92982039    290.07493    346.81519    632.66937   -758.64105    1166.4173   -34479.384    4481.5238   -29997.861 
  143000   0.92982039    292.55716    60.170935    603.84387   -1090.8293     667.4982   -34583.682     4519.873   -30063.809 
  144000   0.92982039     285.7244    280.60618    634.04206   -823.05244    1030.8289   -34591.493    4414.3102   -30177.182 
  145000   0.92982039    289.68413     257.2973    722.64951   -743.92822    793.17061   -34437.879    4475.4861   -29962.393 
  146000   0.92982039    289.83028    229.49919    364.59557   -533.65062    857.55262   -34531.022    4477.7441   -30053.278 
  147000   0.92982039    294.22359    129.83248    657.67827     -1422.36    1154.1792   -34524.901    4545.6186   -29979.282 
  148000   0.92982039     287.8757    268.71699    877.82966    -802.1628     730.4841   -34458.246    4447.5466     -30010.7 
  149000   0.92982039     290.2079   -199.82137    660.16349   -1496.1005    236.47295   -34645.061    4483.5781   -30161.483 
  150000   0.92982039    289.14787    437.21296     843.0197   -217.60269    686.22188   -34399.114    4467.2011   -29931.913 
  151000   0.92982039    291.66605    86.735072    667.01589   -1167.1122    760.30155   -34378.888    4506.1058   -29872.782 
  152000   0.92982039    288.90752    33.390034    535.25417   -999.43839    564.35432   -34523.784    4463.4879   -30060.296 
  153000   0.92982039    295.52232    296.86729    704.42372   -461.83457    648.01271   -34489.463    4565.6834   -29923.779 
  154000   0.92982039    288.58125    496.63199    622.61015   -258.57761    1125.8634   -34642.187    4458.4471    -30183.74 
  155000   0.92982039    290.74858   -20.392604    672.86846   -1035.3172    301.27097   -34571.535    4491.9314   -30079.604 
  156000   0.92982039    288.32548    156.57147    665.36736   -821.51524    625.86229   -34590.851    4454.4956   -30136.356 
  157000   0.92982039    290.47548    82.154695    892.93952   -958.03125    311.55582   -34527.762    4487.7122    -30040.05 
  158000   0.92982039    291.18468    359.25207    1073.4941   -635.75013    640.01225   -34491.082    4498.6689   -29992.413 
  159000   0.92982039      283.125   -290.05815    324.29399   -1151.3269   -43.141574   -34641.898    4374.1506   -30267.747 
  160000   0.92982039    289.50384    191.63186    834.76013   -964.75408    704.88953   -34416.276    4472.7008   -29943.576 
  161000   0.92982039     289.6537    211.90097    785.06803   -853.73369    704.36855   -34426.529     4475.016   -29951.513 
  162000   0.92982039    291.49124    323.83206    1246.9278   -719.90049    444.46883   -34518.744    4503.4052   -30015.339 
  163000   0.92982039    295.99992    74.204461    493.13277   -717.53479    447.01541   -34576.944    4573.0621   -30003.882 
  164000   0.92982039    289.14426     21.88348    772.52634   -927.88133    221.00543   -34546.561    4467.1454   -30079.416 
  165000   0.92982039     289.2452    -214.7535    776.29076   -1787.7708     367.2196    -34477.57    4468.7049   -30008.865 
  166000   0.92982039    290.74373    170.84107    193.81667   -363.67484    682.38137   -34523.457    4491.8564   -30031.601 
  167000   0.92982039    285.41553   -155.85298    406.42341   -1211.8316    337.84923   -34419.574    4409.5383   -30010.036 
  168000   0.92982039    287.67758   -65.097802    704.65483   -971.31366    71.365425   -34603.331    4444.4858   -30158.845 
  169000   0.92982039    290.96428    91.890025    667.40595   -856.21634    464.48046   -34512.575    4495.2638   -30017.311 
  170000   0.92982039    290.71292    157.93918     789.9996   -1050.9068    734.72471   -34621.792    4491.3805   -30130.412 
  171000   0.92982039     290.0687    35.098772    550.57155   -1060.6061    615.33086   -34672.369    4481.4275   -30190.942 
  172000   0.92982039    290.54478    374.33697    1190.1878   -1222.6149     1155.438   -34439.101    4488.7828   -29950.319 
  173000   0.92982039    287.05343    531.77693    1166.1615   -461.28326    890.45252       -34523     4434.843   -30088.157 
  174000   0.92982039      287.209    241.87638    371.89674   -571.29507    925.02747   -34598.379    4437.2464   -30161.133 
  175000   0.92982039    288.17609    35.642925     307.2715   -956.26161    755.91888   -34530.106    4452.1875   -30077.918 
  176000   0.92982039    287.74497    369.93476    881.40522   -678.39734    906.79639    -34508.26    4445.5271   -30062.733 
  177000   0.92982039    286.30624    186.81169    1089.3097   -938.82958    409.95496   -34584.749    4423.2993   -30161.449 
  178000   0.92982039    288.01168    486.05853     1030.975   -194.05556    621.25619   -34469.931    4449.6475   -30020.284 
  179000   0.92982039    290.55202     43.93051    533.06658   -1057.9348    656.65973   -34664.594    4488.8946   -30175.699 
  180000   0.92982039    285.89101    214.60339    439.77454   -261.05038    465.08602   -34699.473    4416.8841   -30282.589 
  181000   0.92982039    291.99685    590.96764    1111.5407   -746.06981    1407.4321   -34543.683    4511.2166   -30032.466 
  182000   0.92982039    294.96602    73.218635    616.00301   -987.89236    591.54525   -34559.866    4557.0889   -30002.778 
  183000   0.92982039    288.47205   -36.762298    811.32739   -1078.4892    156.87489   -34591.237    4456.7601   -30134.477 
  184000   0.92982039    290.82354   -70.654591    495.31768   -886.78884    179.50738   -34622.564    4493.0895   -30129.474 
  185000   0.92982039    290.32904    295.23153    643.64758   -563.82235    805.86935   -34576.692    4485.4497   -30091.242 
  186000   0.92982039    288.35241    201.73705    342.68606   -647.99435    910.51945   -34656.273    4454.9117   -30201.362 
  187000   0.92982039     288.6481    561.44842    669.61694    78.316711    936.41161   -34542.484    4459.4799   -30083.004 
  188000   0.92982039    289.94874    111.06199    239.23404    -817.7592    911.71114   -34423.968    4479.5742   -29944.394 
  189000   0.92982039    288.32834    105.32817    982.85099   -1063.0485    396.18202   -34534.521    4454.5398   -30079.981 
  190000   0.92982039    291.50543    497.43761    1217.8315   -473.17998    747.66128   -34549.164    4503.6243   -30045.539 
  191000   0.92982039    292.92387    253.38709    598.36619   -635.99955    797.79461   -34628.525    4525.5386   -30102.987 
  192000   0.92982039      289.601    501.55604    1368.6712   -973.30271    1109.2996   -34616.923    4474.2018   -30142.722 
  193000   0.92982039    288.17029     489.8218    826.28901   -106.28549    749.46188   -34648.987    4452.0979   -30196.889 
  194000   0.92982039    285.24099    71.481192    670.56377   -853.66351    397.54332   -34538.213    4406.8417   -30131.372 
  195000   0.92982039    292.64823    5.2732074    1097.0936   -1519.4175    438.14359   -34701.933    4521.2801   -30180.653 
  196000   0.92982039     283.2741    26.319113    773.74007    -1113.061    418.27825   -34511.988    4376.4541   -30135.534 
  197000   0.92982039    289.42612    400.32858    1067.3856   -578.22323    711.82341   -34528.836       4471.5   -30057.336 
  198000   0.92982039     286.5873    363.68551    764.30842   -996.27441    1323.0225   -34460.063    4427.6416   -30032.422 
  199000   0.92982039     287.4698    119.74158    308.93009   -955.24856    1005.5432   -34530.193    4441.2758   -30088.917 
  200000   0.92982039    292.29425    54.525552    738.62748   -1266.4714     691.4206   -34524.657    4515.8112   -30008.845 
  201000   0.92982039    285.88867    541.15827     970.6805   -523.46478    1176.2591   -34581.607     4416.848   -30164.759 
  202000   0.92982039    297.56162   -2.4339633    285.03193   -533.78811    241.45429   -34611.258    4597.1896   -30014.069 
  203000   0.92982039    289.89632    262.28075    618.26751   -381.08069    549.65544   -34528.143    4478.7644   -30049.379 
  204000   0.92982039    295.60392    164.21837    336.76756   -843.58313    999.47069    -34472.03    4566.9441   -29905.085 
  205000   0.92982039    295.20884   -93.823811    381.47162   -1234.9698    572.02675   -34526.382    4560.8403   -29965.542 
  206000   0.92982039     289.9884    793.82736    1207.2874   -39.225457    1213.4201   -34600.695    4480.1869   -30120.508 
  207000   0.92982039    292.26818    44.952442    572.74699   -950.81967       512.93   -34541.182    4515.4086   -30025.774 
  208000   0.92982039    291.08718    271.01271    784.22201   -488.33602    517.15215   -34497.798    4497.1626   -30000.635 
  209000   0.92982039    290.12287   -4.6917912    827.73395   -1286.8704    445.06113   -34522.412    4482.2644   -30040.148 
  210000   0.92982039     291.6967    163.12108    490.62915   -529.58959    528.32366   -34559.285    4506.5794   -30052.705 
  211000   0.92982039    291.55119    499.07872    1128.6973    -363.8668    732.40565   -34573.043    4504.3314   -30068.712 
  212000   0.92982039    288.38635    276.40599    472.07703   -441.54543    798.68637   -34611.863    4455.4361   -30156.426 
  213000   0.92982039      286.159     455.7514    1291.6889   -304.30454     379.8698   -34563.699    4421.0246   -30142.674 
  214000   0.92982039    287.28208   -64.429084    857.85154   -1175.3003    124.16152   -34477.022    4438.3755   -30038.647 
  215000   0.92982039    291.04397    167.09315    516.38331   -866.45226    851.34838   -34559.734    4496.4951   -30063.238 
  216000   0.92982039    291.04582    64.303813    804.79078   -1107.8874     496.0081   -34526.262    4496.5235   -30029.739 
  217000   0.92982039    293.93975    153.33685    688.51682    -794.9019    566.39563   -34540.573    4541.2335    -29999.34 
  218000   0.92982039    285.85236    273.63031    1029.6309   -807.15169    598.41177   -34548.087    4416.2871     -30131.8 
  219000   0.92982039    291.64909    203.92537    781.15543   -756.90564    587.52631   -34588.792    4505.8439   -30082.948 
  220000   0.92982039     285.8853    122.95726    589.47311   -950.93589    730.33456   -34474.855    4416.7959   -30058.059 
  221000   0.92982039     289.0663    286.20941    681.95236   -629.75171    806.42758   -34590.771    4465.9409    -30124.83 
  222000   0.92982039    292.11819    70.177972    785.06899   -1054.2969    479.76179   -34652.299    4513.0912   -30139.208 
  223000   0.92982039    287.90494    121.95534    534.00005   -484.03385     315.8998   -34554.969    4447.9984    -30106.97 
  224000   0.92982039    289.65323   -37.228736    587.38672   -887.77138    188.69845   -34530.777    4475.0088   -30055.769 
  225000   0.92982039    291.30631    373.28064    1183.6223   -651.46028    587.67992   -34643.382    4500.5481   -30142.834 
  226000   0.92982039    291.79618     273.6717    481.64062   -128.84881    468.22328   -34663.992    4508.1163   -30155.876 
  227000   0.92982039    291.05721    502.55969    1281.1164   -721.50528    948.06791   -34554.307    4496.6996   -30057.607 
  228000   0.92982039    285.64073    550.06204     888.1059   -393.21726    1155.2975   -34640.947    4413.0175   -30227.929 
  229000   0.92982039    291.24643    244.53638    565.62696   -826.83088    994.81307    -34581.28    4499.6229   -30081.657 
  230000   0.92982039    292.45185   -22.143647    797.61235   -1062.0266    197.98328   -34565.721    4518.2461   -30047.475 
  231000   0.92982039    287.56774    130.84908    734.90044   -901.89359    559.54038    -34596.91    4442.7889   -30154.121 
  232000   0.92982039    294.26764   -80.715303    563.00272   -1225.3729    420.22424   -34607.523    4546.2993   -30061.224 
  233000   0.92982039    291.91133    332.70231    770.44803   -635.84734    863.50625   -34619.738    4509.8953   -30109.843 
  234000   0.92982039    292.59912     155.2334    788.01076   -898.49784    576.18727   -34610.949    4520.5213   -30090.428 
  235000   0.92982039    284.30145   -69.717864     506.2455   -1432.4913    717.09221   -34674.151    4392.3262   -30281.824 
  236000   0.92982039    295.16614    176.94154    777.86638   -935.98419    688.94243   -34564.142    4560.1806   -30003.961 
  237000   0.92982039    292.70879        101.1    709.11115     -773.785    367.97383   -34620.681    4522.2157   -30098.466 
  238000   0.92982039    285.71312    87.000446    519.57998   -787.80368    529.22503   -34592.206    4414.1359    -30178.07 
  239000   0.92982039    294.45387    423.62055    688.93233   -511.37735    1093.3067   -34665.721    4549.1764   -30116.545 
  240000   0.92982039    287.78299   -287.69866   -71.034561   -1199.4477    407.38632    -34634.13    4446.1144   -30188.016 
  241000   0.92982039    289.35499    327.00062    904.26344   -519.10023    595.83865   -34624.694     4470.401   -30154.293 
  242000   0.92982039    291.76711    13.292789    534.52865   -1345.6356    850.98532   -34479.424    4507.6671   -29971.757 
  243000   0.92982039    288.11307     324.8659    729.00501   -862.86554    1108.4582   -34656.197     4451.214   -30204.983 
  244000   0.92982039    283.50691    111.42945    640.90741    -808.8522    502.23314    -34698.62    4380.0509   -30318.569 
  245000   0.92982039    285.84479    377.36921    995.99611   -744.69269    880.80422   -34616.071    4416.1701   -30199.901 
  246000   0.92982039    295.42761    154.87683    908.67464   -953.51172    509.46756   -34655.947    4564.2202   -30091.726 
  247000   0.92982039    287.23812    357.38419    897.98537   -882.76963    1056.9368    -34650.08    4437.6964   -30212.384 
  248000   0.92982039    291.63065    222.08842    775.70349   -811.40901    701.97078   -34581.889    4505.5589    -30076.33 
  249000   0.92982039    289.64976    162.87002    426.87045   -699.81807    761.55769   -34569.871    4474.9551   -30094.916 
  250000   0.92982039    288.54771    158.84837    861.65887   -678.01094    292.89719    -34431.02     4457.929   -29973.091 
  251000   0.92982039    287.05836   -19.934674    412.63224   -776.40434    303.96808   -34630.433    4434.9192   -30195.513 
  252000   0.92982039    289.20466    466.43418    804.16618   -781.43454    1376.5709   -34573.715    4468.0785   -30105.637 
  253000   0.92982039    288.67135    425.14628    1010.1723   -655.60503    920.87161    -34645.36    4459.8392   -30185.521 
  254000   0.92982039    294.11934    382.66087    616.71227   -65.418928    596.68927   -34648.403     4544.008   -30104.395 
  255000   0.92982039      288.922    386.69972    638.43556    -402.7569    924.42051   -34471.172    4463.7116    -30007.46 
  256000   0.92982039    288.51623    243.18696    789.69561    -936.4409    876.30616   -34534.595    4457.4426   -30077.152 
  257000   0.92982039    290.32511    178.58062    727.08401   -748.25544    556.91329   -34661.136    4485.3889   -30175.748 
  258000   0.92982039     285.2381    195.32751    832.13747   -744.80282    498.64787   -34660.234    4406.7971   -30253.437 
  259000   0.92982039     294.3261    97.262673    710.39098   -958.09713    539.49416   -34638.473    4547.2025    -30091.27 
  260000   0.92982039     288.7515    180.63356    893.05875   -665.18869    314.03063   -34611.368    4461.0775   -30150.291 
  261000   0.92982039    296.60472     462.4423    816.73418   -228.96118     799.5539   -34657.186     4582.406    -30074.78 
  262000   0.92982039    293.55699    382.08826    1277.5832   -866.89178    735.57338   -34473.032    4535.3201   -29937.712 
  263000   0.92982039    288.63966    335.64765     292.5302   -353.04518    1067.4579   -34458.815    4459.3496   -29999.466 
  264000   0.92982039    289.56945     149.7394    457.79141   -1099.8335    1091.2602   -34567.024    4473.7144    -30093.31 
  265000   0.92982039    290.72676    278.61422    1234.1139   -1389.2729    991.00161    -34538.92    4491.5943   -30047.326 
  266000   0.92982039     290.5689    16.918056    589.01705   -811.70383    273.44095   -34657.415    4489.1554    -30168.26 
  267000   0.92982039    292.87011    391.99999    1006.9377   -295.16447    464.22673   -34589.787     4524.708   -30065.079 
  268000   0.92982039     289.7328    159.36082     924.8326   -1091.6661    644.91597   -34556.573     4476.238   -30080.335 
  269000   0.92982039    287.97828    539.08114     1119.413   -464.94058    962.77098   -34624.949    4449.1315   -30175.818 
  270000   0.92982039    293.82555    339.05559    1230.2778   -1114.6872    901.57611   -34579.295    4539.4692   -30039.826 
  271000   0.92982039    285.73807    85.315897    868.76286   -773.36455    160.54938   -34633.753    4414.5213   -30219.231 
  272000   0.92982039    289.10715    707.58318    726.84569    379.12958    1016.7742   -34662.315    4466.5721   -30195.743 
  273000   0.92982039     290.8884    246.96765    497.39877   -507.29571    750.79987   -34630.319    4494.0915   -30136.228 
  274000   0.92982039    289.96671     283.7952    876.12626   -309.54053    284.79986   -34652.513    4479.8518   -30172.661 
  275000   0.92982039    287.53237    296.67403    1119.0634   -822.69935    593.65804   -34589.258    4442.2425   -30147.015 
  276000   0.92982039    293.37259    180.39777    766.59647   -754.51141    529.10826   -34606.645    4532.4711   -30074.174 
  277000   0.92982039    290.84279    732.77217    1352.8266   -625.19468    1470.6846   -34570.234    4493.3869   -30076.847 
  278000   0.92982039    288.41436    399.81051    1397.5895   -628.29278    430.13481   -34706.943    4455.8687   -30251.074 
  279000   0.92982039    291.16232    335.57523    1029.8456   -1226.6324    1203.5125   -34575.677    4498.3235   -30077.353 
  280000   0.92982039    290.20658    329.42939    842.96035   -396.18328    541.51109   -34463.397    4483.5578   -29979.839 
  281000   0.92982039    288.20418    191.28511     778.5179   -1059.9032    855.24063    -34450.47    4452.6216   -29997.849 
  282000   0.92982039    290.17926    430.73675    729.10155   -667.42546    1230.5342   -34486.661    4483.1357   -30003.526 
  283000   0.92982039     292.3861    126.61066    794.73836   -1395.5198    980.61342   -34407.868    4517.2303   -29890.637 
  284000   0.92982039    286.36996    181.30161    173.81057   -874.05032    1244.1446   -34569.839    4424.2837   -30145.555 
  285000   0.92982039    293.61557    15.193593    544.67033   -957.99664    458.90709   -34592.311     4536.225   -30056.086 
  286000   0.92982039    290.79935    119.84017    841.55859   -1319.9722    837.93407   -34508.362    4492.7157   -30015.646 
  287000   0.92982039    286.47149    438.47717    877.62487    -414.8108    852.61744    -34572.69    4425.8524   -30146.838 
  288000   0.92982039    284.86749    485.01659    1097.3296   -963.35277    1321.0729   -34662.378    4401.0712   -30261.306 
  289000   0.92982039    290.39196    429.41459    875.76038   -536.20743    948.69083   -34607.972    4486.4218   -30121.551 
  290000   0.92982039    290.73164   -43.634046    545.07556   -1187.7665    511.78878   -34545.583    4491.6696   -30053.914 
  291000   0.92982039    293.75112    356.65526    776.79505   -625.02663    918.19737   -34519.513    4538.3193   -29981.193 
  292000   0.92982039    286.83767    67.458434    683.17948   -1030.9435    550.13937   -34694.969    4431.5097    -30263.46 
  293000   0.92982039    284.64604    467.09672    1023.9756   -716.13125    1093.4458   -34580.407      4397.65   -30182.757 
  294000   0.92982039    293.71653    239.16645    1171.3671   -1092.1223    638.25458   -34599.954    4537.7848   -30062.169 
  295000   0.92982039    294.80229    493.57013     736.8834   -163.08011    906.90712   -34541.039    4554.5593   -29986.479 
  296000   0.92982039    290.57487    210.80266    676.84927   -726.21772    681.77645   -34544.992    4489.2477   -30055.744 
  297000   0.92982039    293.37427    316.43025    1003.3143   -730.18176    676.15825   -34619.599    4532.4971   -30087.102 
  298000   0.92982039    291.67869   -185.74387    49.755156   -972.01047     365.0237   -34747.017    4506.3012   -30240.715 
  299000   0.92982039    290.66082    319.27512    1003.1705   -484.39524    439.05011   -34609.624    4490.5755   -30119.049 
  300000   0.92982039     291.1805    160.18999    531.72287   -816.73667    765.58378   -34540.551    4498.6044   -30041.946 
  301000   0.92982039      291.377    412.31892    1075.8235   -272.01941     433.1527   -34552.301    4501.6402   -30050.661 
  302000   0.92982039    292.77241    223.11587    471.08332   -758.16635    956.43065   -34577.283    4523.1987   -30054.084 
  303000   0.92982039    289.32664    104.75016    715.74459   -1421.6949    1020.2008   -34512.774     4469.963   -30042.811 
  304000   0.92982039    286.81219    211.01867    724.53275    -797.1042    705.62747   -34595.824    4431.1159   -30164.708 
  305000   0.92982039     292.4124    296.81522     808.2182   -1043.0577    1125.2852   -34613.575    4517.6367   -30095.938 
  306000   0.92982039     287.9221    250.22915     668.8039    -1253.263    1335.1465   -34630.633    4448.2636    -30182.37 
  307000   0.92982039    290.52438   -56.992433    749.04842   -887.24047    -32.78525     -34624.8    4488.4676   -30136.333 
  308000   0.92982039    291.83669    106.30326    719.51862   -1354.4647    953.85583   -34652.238    4508.7422   -30143.496 
  309000   0.92982039    291.21092     -230.557    128.39272   -899.11076    79.047022   -34557.019    4499.0743   -30057.945 
  310000   0.92982039    293.43311    418.80558    787.64191   -570.46688    1039.2417   -34525.527    4533.4061   -29992.121 
  311000   0.92982039     288.4542    108.87882    696.34527   -540.37671     170.6679   -34596.738    4456.4843   -30140.254 
  312000   0.92982039    296.00462   -78.730164    423.68299   -1072.1049    412.23146   -34678.979    4573.1348   -30105.844 
  313000   0.92982039     294.6346    301.69473    798.10459    -505.6013     612.5809   -34561.298    4551.9687    -30009.33 
  314000   0.92982039    287.72878    322.53713    698.12166   -143.91558    413.40532    -34602.84    4445.2769   -30157.563 
  315000   0.92982039    286.00097    108.48949    440.09284      -1119.1    1004.4756   -34617.999    4418.5831   -30199.416 
  316000   0.92982039     288.1437    438.25536    1213.0399   -887.26287    988.98902   -34528.439    4451.6871   -30076.752 
  317000   0.92982039    289.84388    76.459229    549.26416   -889.54701    569.66053   -34556.081    4477.9543   -30078.127 
  318000   0.92982039    286.14774   -55.435194    437.77438   -1221.9956    617.91568   -34470.526    4420.8505   -30049.676 
  319000   0.92982039    292.37782    685.82809    1217.4595   -511.43475    1351.4595    -34415.29    4517.1024   -29898.188 
  320000   0.92982039    293.09325    47.479728    496.29693   -699.41377    345.55603    -34628.81    4528.1554   -30100.654 
  321000   0.92982039    285.39806   -34.097791    839.78742   -1329.9579     387.8771   -34535.611    4409.2683   -30126.342 
  322000   0.92982039    293.13055    209.29467    474.02695   -535.40939    689.26645   -34466.109    4528.7316   -29937.378 
  323000   0.92982039    288.11816   -260.46659   -163.95402    -1215.729    598.28325   -34450.625    4451.2926   -29999.332 
  324000   0.92982039    289.03303    241.73012    254.06361   -371.36418    842.49094   -34408.283    4465.4269   -29942.857 
  325000   0.92982039    291.64086   -61.925995    137.77909   -984.41022    660.85315   -34469.467    4505.7167    -29963.75 
  326000   0.92982039    290.04644    267.32534     632.6678   -1112.0834    1281.3916   -34407.668    4481.0836   -29926.584 
  327000   0.92982039    287.45746   -250.84833    320.25038   -1296.8009    224.00551   -34527.744    4441.0851   -30086.659 
  328000   0.92982039    292.31677    402.58106    918.54338   -776.06833    1065.2681   -34522.886    4516.1592   -30006.727 
  329000   0.92982039    293.88374    219.60725    1022.1554   -960.12544     596.7918   -34384.846    4540.3682   -29844.478 
  330000   0.92982039    284.56202    78.971685    570.33402   -718.21129    384.79233   -34509.716    4396.3519   -30113.364 
  331000   0.92982039    290.72084    231.44909    742.10427   -787.67713    739.92011   -34529.974    4491.5028   -30038.472 
  332000   0.92982039     291.6976    266.35954    1022.9809   -852.88769    628.98537   -34514.135    4506.5933   -30007.542 
  333000   0.92982039    287.71413   -14.946382    275.05761   -521.57069    201.67393     -34462.7    4445.0505   -30017.649 
  334000   0.92982039    289.29575    85.892169    425.89514    -986.3932    818.17456    -34526.88    4469.4859   -30057.394 
  335000   0.92982039    286.86841    9.0768803    48.033777   -867.49414      846.691   -34486.038    4431.9845   -30054.053 
  336000   0.92982039    294.98238    128.62545     255.6609   -830.44758    960.66301   -34432.445    4557.3417   -29875.103 
  337000   0.92982039    292.32013    500.19361    1079.0262   -327.26361    748.81827   -34581.311    4516.2111     -30065.1 
  338000   0.92982039     287.1213    104.19768    207.17849   -453.27506     558.6896   -34537.326    4435.8915   -30101.434 
  339000   0.92982039    290.36436   -66.574294    379.50786    -1262.145    682.91429   -34503.361    4485.9953   -30017.366 
  340000   0.92982039    288.71239    256.47275    419.56136   -363.16945    713.02634   -34436.988    4460.4732   -29976.514 
  341000   0.92982039     286.0989    281.69909    662.58529   -548.50206    731.01406   -34497.549     4420.096   -30077.453 
  342000   0.92982039    289.95559    783.19974    1155.8767    9.2188923    1184.5037   -34419.015    4479.6801   -29939.335 
  343000   0.92982039    287.26627   -91.801259    663.95378   -1284.9795    345.62192    -34385.63    4438.1313   -29947.499 
  344000   0.92982039    290.18703    129.23704    1048.9238   -1305.2939    644.08117   -34551.837    4483.2557   -30068.581 
  345000   0.92982039    289.22777    387.93739    1003.7703   -468.41252    628.45441   -34546.909    4468.4356   -30078.474 
  346000   0.92982039    289.61497    56.250937    253.66218   -1019.4037    934.49431   -34539.293    4474.4176   -30064.876 
  347000   0.92982039      289.359    76.531292     619.1635   -1195.3166    805.74693   -34450.426     4470.463   -29979.963 
  348000   0.92982039    286.21049    291.59452    921.96631   -1103.9915    1056.8088   -34592.234      4421.82   -30170.414 
  349000   0.92982039    293.31365    272.96857    835.08311   -297.09667    280.91927   -34724.299    4531.5605   -30192.738 
  350000   0.92982039    292.24267     189.2184    777.00863   -1016.7019    807.34848   -34657.277    4515.0144   -30142.263 
  351000   0.92982039    291.69742    378.59052    592.36917   -682.57091    1225.9733    -34481.85    4506.5906   -29975.259 
  352000   0.92982039    290.74009    383.90442     865.9954   -947.91137    1233.6292   -34586.119    4491.8002   -30094.318 
  353000   0.92982039    288.59121    446.22022    1202.6794   -559.27323    695.25445   -34565.989     4458.601   -30107.388 
  354000   0.92982039    292.71114    41.025635    465.76313   -491.30379    148.61757   -34518.562     4522.252    -29996.31 
  355000   0.92982039    287.91747      388.994    676.80566   -389.72245     879.8988   -34461.618    4448.1921   -30013.426 
  356000   0.92982039    292.42236    -153.6358    250.51964   -1436.0084     724.5814   -34560.081    4517.7906   -30042.291 
  357000   0.92982039    283.12087    207.35733    787.45209   -196.25138    30.871266   -34594.188    4374.0867   -30220.101 
  358000   0.92982039     288.8728   -56.055171    557.54865   -1212.0384    486.32425   -34554.387    4462.9514   -30091.435 
  359000   0.92982039    291.40324    198.14346    488.67472   -841.93915    947.69482    -34539.93    4502.0456   -30037.884 
  360000   0.92982039     288.1922   -12.916177    240.88268    -1104.112    824.48079   -34553.932    4452.4365   -30101.495 
  361000   0.92982039    286.79762    337.25351    974.44994   -1000.9118    1038.2224   -34500.052    4430.8909   -30069.161 
  362000   0.92982039    281.90428     132.4025    138.63047   -715.11245    973.68947   -34542.108    4355.2911   -30186.817 
  363000   0.92982039    295.06143    479.98977     1484.824   -725.70118    680.84644    -34530.92    4558.5628   -29972.357 
  364000   0.92982039    289.72652    74.334779    942.37601   -1020.2406    300.86891   -34492.671    4476.1411    -30016.53 
  365000   0.92982039    292.60312    595.87267    859.98009   -64.995074      992.633   -34569.648    4520.5831   -30049.064 
  366000   0.92982039     292.6882    64.041161    813.31206   -958.75064    337.56206   -34575.715    4521.8976   -30053.818 
  367000   0.92982039    290.58038    216.15289     695.6994   -709.22711    661.98638   -34602.403    4489.3327   -30113.071 
  368000   0.92982039    283.21595    91.571778    357.96289   -470.38655      387.139   -34544.271    4375.5557   -30168.716 
  369000   0.92982039    288.10001    243.72806     367.6545   -490.43603     853.9657   -34568.769    4451.0122   -30117.756 
  370000   0.92982039    294.74227    343.73117    1176.0481   -347.56548    202.71089   -34634.328     4553.632   -30080.696 
  371000   0.92982039    290.90626    201.27272    462.31599   -762.91003     904.4122   -34650.576    4494.3674   -30156.208 
  372000   0.92982039    285.48909    307.50983    801.31117   -349.64344    470.86175    -34431.92    4410.6747   -30021.245 
  373000   0.92982039    292.07369    120.85971     240.5633   -632.63158     754.6474   -34584.367    4512.4037   -30071.963 
  374000   0.92982039    289.41468    459.63297    740.71709   -388.85843    1027.0403   -34645.814    4471.3232   -30174.491 
  375000   0.92982039    287.67097   -81.547238    423.08444   -1225.0928    557.36664   -34603.593    4444.3838   -30159.209 
  376000   0.92982039    285.03821    251.61719    665.52148   -772.45555    861.78563   -34510.614    4403.7087   -30106.905 
  377000   0.92982039    286.76108    142.20871    669.71119   -648.12621    405.04115   -34566.258    4430.3264   -30135.931 
  378000   0.92982039     290.2889    59.390857    259.10629   -695.41994    614.48622   -34621.956    4484.8295   -30137.126 
  379000   0.92982039    290.82143    385.01452    791.71957   -342.93566    706.25966   -34650.485    4493.0569   -30157.428 
  380000   0.92982039    287.44573    143.93877    547.70467   -731.38677    615.49841    -34611.39    4440.9039   -30170.486 
  381000   0.92982039    287.26439     93.08437    695.00613   -1395.8542    980.10121   -34674.012    4438.1022   -30235.909 
  382000   0.92982039    296.08805    243.29367    828.19222   -595.14303    496.83181   -34618.681    4574.4238   -30044.257 
  383000   0.92982039    288.25632   -100.01001    596.46597   -1235.1697    338.67373   -34536.081    4453.4271   -30082.654 
  384000   0.92982039    293.36886    -58.19786    505.05968   -889.54285    209.88958    -34568.46    4532.4135   -30036.047 
  385000   0.92982039    292.55559    156.40949     520.8181   -339.71307    288.12343   -34568.084    4519.8488   -30048.235 
  386000   0.92982039    283.51597   -102.11265    621.76968   -1626.7376    698.62991   -34569.597    4380.1908   -30189.406 
  387000   0.92982039    285.15563    388.89314    689.02386    -309.8439    787.49947   -34406.569    4405.5228   -30001.046 
  388000   0.92982039    288.94792    119.81577     534.9727   -1136.0141    960.48866   -34602.866    4464.1121   -30138.754 
  389000   0.92982039    286.65091    287.28604    799.72601    -1306.694    1368.8261   -34597.686    4428.6242   -30169.062 
  390000   0.92982039    284.66766     102.5616    689.68859   -921.09592    539.09214    -34609.93    4397.9839   -30211.946 
  391000   0.92982039      291.418    262.71321    1247.0616   -1234.3726    775.45068   -34646.178    4502.2737   -30143.905 
  392000   0.92982039     294.2559    218.74283    626.99429   -854.08175    883.31596   -34578.602    4546.1178   -30032.485 
  393000   0.92982039    288.78666    253.52855    805.25268    -1255.292     1210.625   -34493.246    4461.6206   -30031.625 
  394000   0.92982039    289.14672     385.2722    1028.6098   -1082.8363    1210.0431   -34592.929    4467.1834   -30125.745 
  395000   0.92982039    287.35731    137.09002     368.8416   -968.58676    1011.0152   -34399.475    4439.5379   -29959.937 
  396000   0.92982039     292.7006   0.70487714    666.18136   -1344.6018    680.53505   -34570.691    4522.0891   -30048.602 
  397000   0.92982039    287.38502    202.10389    605.35327   -987.30341     988.2618   -34573.385    4439.9659   -30133.419 
  398000   0.92982039    288.82758    106.50851    576.12635   -1126.4618    869.86096   -34629.713    4462.2528    -30167.46 
  399000   0.92982039    291.42353    141.18337     1115.868   -909.73191    217.41405    -34592.81     4502.359   -30090.451 
  400000   0.92982039    285.62116    -52.89996    663.55845   -683.66706   -138.59127   -34579.265     4412.715    -30166.55 
  401000   0.92982039    297.60069    164.55558    897.24586   -1140.6588    737.07967   -34552.549    4597.7933   -29954.756 
  402000   0.92982039    289.98053    -211.4672   -25.145924   -1172.7328    563.47715   -34657.009    4480.0654   -30176.943 
  403000   0.92982039    291.21886    84.283195    226.47414   -767.30088    793.67632   -34647.593     4499.197   -30148.396 
  404000   0.92982039    295.14992    65.757405    406.35648   -1107.3974    898.31319   -34610.683    4559.9301   -30050.753 
  405000   0.92982039    286.65933   -40.621297    564.77579   -999.39774    312.75806   -34704.697    4428.7543   -30275.943 
  406000   0.92982039    295.62785    -36.38662    31.684218    -829.7958    688.95172    -34748.44    4567.3138   -30181.126 
  407000   0.92982039    293.46751    258.94998    1454.3539   -1081.8626    404.35868   -34659.286    4533.9376   -30125.349 
  408000   0.92982039    286.43659    220.05833    745.90515   -1007.6807     921.9505   -34705.567    4425.3131   -30280.254 
  409000   0.92982039    290.72962    92.218606     104.3015   -431.05322    603.40753   -34718.156    4491.6384   -30226.518 
  410000   0.92982039    295.40911    336.94002    1405.0404   -698.47712     304.2568   -34549.235    4563.9344   -29985.301 
  411000   0.92982039    289.14527    356.67393    1010.9926   -340.19699    399.22619   -34552.189    4467.1609   -30085.028 
  412000   0.92982039    289.49162   -383.86576    199.61433   -1484.5971    133.38544   -34571.169    4472.5119   -30098.657 
  413000   0.92982039    284.61699    414.52662    936.20271   -193.29553    500.67267   -34562.789    4397.2012   -30165.587 
  414000   0.92982039     293.9737    204.43825    794.81039   -627.15778    445.66213   -34627.842    4541.7579   -30086.084 
  415000   0.92982039    289.73095   -164.03822    426.67941   -1554.7006    635.90655   -34525.923    4476.2095   -30049.713 
  416000   0.92982039    289.93662   -8.0153822    559.72685   -996.28334    412.51034    -34596.26     4479.387   -30116.873 
  417000   0.92982039    288.72467    33.084363    777.84349   -1364.7783    686.18792   -34616.559     4460.663   -30155.896 
  418000   0.92982039    296.86143    34.405814    230.18013    -717.8309    590.86821   -34581.673     4586.372   -29995.301 
  419000   0.92982039    300.46184    -448.9752   -138.40843   -1510.5187    302.00149   -34519.572    4641.9968   -29877.576 
  420000   0.92982039    291.45389    113.77951      385.711   -647.02551    602.65304   -34612.233    4502.8282   -30109.405 
  421000   0.92982039     283.8313    146.87349    342.72468   -243.29983    341.19563   -34494.533    4385.0627    -30109.47 
  422000   0.92982039    291.93581   -70.834454    604.89028   -1073.1395    255.74588   -34585.837    4510.2735   -30075.564 
  423000   0.92982039    291.79813    476.48523     795.0145   -251.90758    886.34877   -34619.505    4508.1465   -30111.359 
  424000   0.92982039    293.98848   -11.063804    821.20734   -1033.8401    179.44132    -34533.18    4541.9863   -29991.193 
  425000   0.92982039    295.94187    457.84399     1159.515   -805.68068    1019.6977   -34551.392    4572.1652   -29979.226 
  426000   0.92982039    287.31217    161.43646    821.31587   -848.65729    511.65079   -34537.142    4438.8404   -30098.302 
  427000   0.92982039     286.2407    489.61388    1096.1321   -516.64769    889.35718   -34672.167    4422.2867   -30249.881 
  428000   0.92982039    290.74236   -53.464396    455.65654    -1379.306    763.25632   -34495.771    4491.8353   -30003.936 
  429000   0.92982039    290.28199    123.33128    534.33096   -989.25467    824.91755   -34663.599    4484.7228   -30178.876 
  430000   0.92982039    291.99139    533.73056    1084.7303   -514.23121    1030.6926   -34532.689    4511.1322   -30021.556 
  431000   0.92982039    292.46912    254.46172    484.47895   -964.21859    1243.1248   -34569.809     4518.513   -30051.296 
  432000   0.92982039    295.52383    276.56023    570.79111   -725.13427    984.02384   -34377.015    4565.7069   -29811.308 
  433000   0.92982039    294.33753    517.84228    1256.9959   -1007.8084    1304.3394   -34501.299    4547.3791    -29953.92 
  434000   0.92982039    290.16338    372.25676     634.0625    -445.5029    928.21067   -34479.993    4482.8903   -29997.102 
  435000   0.92982039    295.02901    179.72344    373.00205   -606.95932     773.1276   -34595.185     4558.062   -30037.123 
  436000   0.92982039    284.82834    166.04995    813.54294   -756.62845    441.23536    -34547.81    4400.4665   -30147.343 
  437000   0.92982039    284.25314   -102.36351    381.90612   -1294.7581    605.76145   -34484.251    4391.5799   -30092.671 
  438000   0.92982039    288.06625    148.81888    512.15296   -568.57311    502.87679   -34481.947    4450.4906   -30031.456 
  439000   0.92982039    299.47463    7.8949521    758.55658   -1322.1406    587.26892   -34498.066    4626.7448   -29871.321 
  440000   0.92982039    292.20386    424.19037    535.88882   -385.49869     1122.181   -34515.379    4514.4148   -30000.964 
  441000   0.92982039    286.02873    45.424209    553.15066   -600.83709    183.95907   -34645.224    4419.0118   -30226.213 
[...]
 1507000   0.92982039    291.86114    80.224701    362.36388   -500.66452    378.97474    -34632.46    4509.1199    -30123.34 
 1508000   0.92982039     285.7225    393.49448    954.36109   -746.50011    972.62247   -34529.529    4414.2808   -30115.248 
 1509000   0.92982039    286.33908    281.83806    639.79436   -895.35941    1101.0792   -34564.378    4423.8066   -30140.571 
 1510000   0.92982039     289.8324    50.679118    417.33485   -448.50127    183.20377   -34546.119    4477.7768   -30068.342 
 1511000   0.92982039     289.9506     296.2222    482.16636   -748.38181    1154.8821   -34604.382     4479.603   -30124.779 
 1512000   0.92982039    288.21128    507.21488    975.34718   -395.32063    941.61809   -34629.028    4452.7313   -30176.296 
 1513000   0.92982039    287.28841    450.94204     1175.712   -742.96125    920.07536   -34746.493    4438.4733    -30308.02 
 1514000   0.92982039    288.68288    484.36382    1157.0065   -820.29451    1116.3795   -34640.171    4460.0173   -30180.154 
 1515000   0.92982039    289.75877    525.07472    1241.7397   -573.75381    907.23829   -34581.581    4476.6392   -30104.942 
 1516000   0.92982039    287.42838    616.52355    1377.8403   -588.68066    1060.4111   -34646.003    4440.6358   -30205.368 
 1517000   0.92982039    286.52688    208.57918    850.26074   -857.05009    632.52687   -34697.605    4426.7081   -30270.897 
 1518000   0.92982039    291.73061    626.12373    1176.4838   -1098.0613    1799.9487   -34531.593    4507.1033    -30024.49 
 1519000   0.92982039    291.33659    436.76203    876.24998   -1036.9705    1471.0067   -34730.973    4501.0158   -30229.958 
 1520000   0.92982039    287.36842    255.94343    631.16574   -971.04714    1107.7117   -34678.074    4439.7095   -30238.365 
 1521000   0.92982039    289.19635    32.360029    477.64335   -1088.2132    707.64996   -34664.509    4467.9501   -30196.559 
 1522000   0.92982039    290.40483     487.6184    1589.0801    -1100.263    974.03804    -34674.36    4486.6205   -30187.739 
 1523000   0.92982039    285.03612    612.11246    963.56614   -727.99276     1600.764   -34633.742    4403.6765   -30230.065 
 1524000   0.92982039    293.64456    272.85933     682.5292   -860.48477    996.53357   -34609.895    4536.6729   -30073.223 
 1525000   0.92982039    284.97118    308.93145    809.07688    -740.8169    858.53439   -34602.209    4402.6733   -30199.536 
 1526000   0.92982039    290.00306    166.61158    838.78117   -1104.5394    765.59293   -34545.799    4480.4134   -30065.386 
 1527000   0.92982039    288.89876    371.29287    1125.5187   -931.64818    920.00807   -34683.169    4463.3525   -30219.817 
 1528000   0.92982039    287.01264    31.051414    721.16804    -1253.352    625.33822   -34614.099    4434.2128   -30179.886 
 1529000   0.92982039    289.39952    439.08868    832.41513   -447.90703    932.75793   -34618.751     4471.089   -30147.662 
 1530000   0.92982039    284.63009    321.82618    643.21691   -659.29929    981.56091   -34626.975    4397.4036   -30229.572 
 1531000   0.92982039    293.29726    702.08084    1488.9741   -287.25155    904.51998    -34616.18    4531.3073   -30084.873 
 1532000   0.92982039    285.69256    566.06069    1322.7662    -465.9422     841.3581   -34627.165    4413.8183   -30213.347 
 1533000   0.92982039    292.77565    456.37318    907.04754   -850.90285    1312.9748   -34604.813    4523.2486   -30081.565 
 1534000   0.92982039    292.16274    458.22043    907.41729   -103.06771    570.31172   -34761.188    4513.7794   -30247.408 
 1535000   0.92982039    290.79098    183.92197     434.9914   -884.99034    1001.7648   -34625.716    4492.5864   -30133.129 
 1536000   0.92982039    287.59501    152.26218    737.83799   -774.78688    493.73543   -34808.748    4443.2101   -30365.538 
 1537000   0.92982039    293.95018    227.82327    1100.7763   -1103.7956    686.48907   -34666.429    4541.3946   -30125.034 
 1538000   0.92982039    284.26375    324.40481    1109.1921   -705.49026    569.51257   -34674.759    4391.7437   -30283.016 
 1539000   0.92982039    295.92947    173.81569    1066.2585   -1012.5413    467.72986   -34684.867    4571.9738   -30112.893 
 1540000   0.92982039    289.81784    176.21869     774.6298   -726.58794    480.61422    -34716.57    4477.5519   -30239.018 
 1541000   0.92982039    288.35105    315.39279    1501.4116   -1065.1543     509.9211   -34675.177    4454.8907   -30220.286 
 1542000   0.92982039    286.97858    362.22367    1109.1799   -912.75724    890.24832   -34553.998    4433.6866   -30120.312 
 1543000   0.92982039    280.75172   -132.91288    525.59737   -1339.6891    415.35314   -34789.777    4337.4845   -30452.293 
 1544000   0.92982039     290.0023    560.19407     1459.797   -660.79494    881.58012   -34691.374    4480.4017   -30210.972 
 1545000   0.92982039    288.94298    762.93836    1721.7608   -439.35645    1006.4107   -34723.023    4464.0356   -30258.988 
 1546000   0.92982039    288.98666    179.28877    1022.7695    -925.5655    440.66235   -34761.722    4464.7105   -30297.011 
 1547000   0.92982039    292.36582    461.31031    1037.1185   -327.16407    673.97651   -34782.591    4516.9171   -30265.674 
 1548000   0.92982039    288.62306   -64.357776     567.3444   -1359.3137      598.896   -34711.406     4459.093   -30252.313 
 1549000   0.92982039    288.38773    -17.28209    851.49908    -1474.257    570.91161    -34663.75    4455.4573   -30208.293 
 1550000   0.92982039    289.95091    453.60145    1466.5955   -864.45678    758.66562   -34634.398    4479.6078    -30154.79 
 1551000   0.92982039    293.54105    330.88354    542.68861   -550.45371    1000.4157   -34551.343    4535.0737    -30016.27 
 1552000   0.92982039    290.11852    287.02638    801.32432    -836.6653    896.42011   -34555.761    4482.1973   -30073.564 
 1553000   0.92982039    288.20521    5.0606568    637.25808   -1087.8243    465.74815   -34717.053    4452.6374   -30264.416 
 1554000   0.92982039    288.97289     441.5176    1099.5605   -322.98139    547.97367    -34628.43    4464.4978   -30163.932 
 1555000   0.92982039    292.80884    210.55747    355.23883   -937.94941     1214.383   -34725.941    4523.7615    -30202.18 
 1556000   0.92982039     290.8631    260.17232    897.41246    -586.8198    469.92429   -34573.305    4493.7007   -30079.604 
 1557000   0.92982039    290.14765    167.79209    337.27468   -1452.0429    1618.1445   -34602.188    4482.6473   -30119.541 
 1558000   0.92982039    291.50469    213.58281    910.63778   -1474.2328    1204.3435   -34607.957     4503.613   -30104.344 
 1559000   0.92982039    287.09825    79.205529    856.11899   -1224.4979    605.99545   -34623.889    4435.5354   -30188.353 
 1560000   0.92982039    293.90484    84.346087    749.52819   -1054.4071     557.9172   -34503.441    4540.6941   -29962.747 
 1561000   0.92982039    287.20719    -44.44014    584.55991   -1273.7007    555.82039   -34609.676    4437.2185   -30172.457 
 1562000   0.92982039    285.57817    85.899407    435.68002   -887.09568    709.11389   -34557.913    4412.0509   -30145.862 
 1563000   0.92982039     297.2444    95.852263    691.61955   -881.36278    477.30002    -34617.24    4592.2888   -30024.951 
 1564000   0.92982039    288.85378    377.90901    812.14372   -897.17614    1218.7594   -34642.628    4462.6575    -30179.97 
 1565000   0.92982039    290.93714    379.69861    1076.4913   -867.07379    929.67838   -34634.452    4494.8445   -30139.608 
 1566000   0.92982039     287.2959    338.62355    674.23219   -940.47323    1282.1117   -34501.883    4438.5891   -30063.294 
 1567000   0.92982039    283.90279    315.58004    1018.5734   -916.85095    845.01771    -34535.37    4386.1671   -30149.203 
 1568000   0.92982039    294.19192    378.14058    487.81164   -27.456898      674.067   -34629.953    4545.1293   -30084.824 
 1569000   0.92982039    287.02911   -19.590956    491.60133   -1134.1655    583.79128   -34529.643    4434.4673   -30095.175 
 1570000   0.92982039    289.34429   -1.9145918     817.6567   -1436.9902    613.58974   -34537.778    4470.2358   -30067.542 
 1571000   0.92982039    284.30231    115.70471    748.25854   -944.87654    543.73212   -34503.658    4392.3395   -30111.318 
 1572000   0.92982039    290.43901   -89.559359    540.85137   -1192.7295    383.20007   -34565.653    4487.1486   -30078.505 
 1573000   0.92982039    290.01713    679.60405     1170.221   -348.82478     1217.416       -34533    4480.6308   -30052.369 
 1574000   0.92982039    284.03372   -29.018249    457.81407   -1088.4169     543.5481     -34534.2    4388.1899    -30146.01 
 1575000   0.92982039     288.8796    560.31804    1143.6378   -412.72429    950.04063   -34589.554    4463.0565   -30126.498 
 1576000   0.92982039    282.88273    46.820931    506.66281   -1047.2333    681.03325   -34654.174    4370.4077   -30283.767 
 1577000   0.92982039    282.48121    497.20679    692.41538   -543.74394    1342.9489   -34599.759    4364.2043   -30235.555 
 1578000   0.92982039    293.84504    327.90846    993.87639   -883.17076    873.01975   -34594.105    4539.7703   -30054.335 
 1579000   0.92982039    287.57907    333.69669    781.95148   -708.90227    928.04085   -34652.346     4442.964   -30209.382 
 1580000   0.92982039    295.76722    262.31552    481.83022   -698.76624    1003.8826   -34628.621     4569.467   -30059.154 
 1581000   0.92982039    288.77582    365.12685    706.44069   -902.35191    1291.2918   -34657.069    4461.4532   -30195.616 
 1582000   0.92982039    291.56779    540.33468    948.66065   -904.36582    1576.7092   -34738.358    4504.5877    -30233.77 
 1583000   0.92982039    294.78047    321.36867    903.02099   -870.96602    932.05105    -34673.79    4554.2223   -30119.567 
 1584000   0.92982039    291.32061    660.86724      984.015    -33.60274    1032.1894    -34601.74    4500.7689   -30100.971 
 1585000   0.92982039    290.33758    408.74476    703.72949   -346.95285    869.45763   -34651.717    4485.5817   -30166.135 
 1586000   0.92982039    292.14459    553.67767    739.50159   -116.18771    1037.7191    -34640.38    4513.4992   -30126.881 
 1587000   0.92982039    288.39949    384.69982    707.06523   -611.78519    1058.8194   -34639.505     4455.639   -30183.866 
 1588000   0.92982039     288.8773    749.17354    1310.8879   -77.689557    1014.3222    -34672.82     4463.021   -30209.799 
 1589000   0.92982039    285.59759    288.95366    1284.5016   -979.65018     562.0095   -34702.683    4412.3509   -30290.332 
 1590000   0.92982039    293.32338    514.20783    1147.7337   -532.82734    927.71715   -34526.961    4531.7109    -29995.25 
 1591000   0.92982039    290.51876    65.728723     717.2742   -1014.2523    494.16429   -34715.317    4488.3808   -30226.936 
 1592000   0.92982039    297.62334   -84.999342    506.60641   -1487.0674    725.46298   -34720.041    4598.1432   -30121.898 
 1593000   0.92982039    288.08594    579.14709    1150.4649   -396.44508    983.42145   -34612.401    4450.7948   -30161.606 
 1594000   0.92982039    293.33685    504.75094    473.67908   -178.32538    1218.8991   -34596.962     4531.919   -30065.043 
 1595000   0.92982039    286.86178    313.80415    747.46756   -850.05201    1043.9969   -34607.815    4431.8821   -30175.933 
 1596000   0.92982039    295.60618    522.13203    960.66335   -380.25883    985.99157   -34687.626    4566.9791   -30120.647 
 1597000   0.92982039    285.71709    128.00386    640.35079   -1011.8018    755.46257   -34728.978    4414.1972   -30314.781 
 1598000   0.92982039    291.25842    495.45202    844.40126   -63.154574    705.10937    -34713.71    4499.8082   -30213.902 
 1599000   0.92982039    295.51462    523.97139    571.38768   -47.297492     1047.824   -34640.948    4565.5645   -30075.383 
 1600000   0.92982039      290.315    38.878371    454.64206   -755.31084    417.30389   -34757.123    4485.2328   -30271.891 
 1601000   0.92982039    287.20593   -86.001521    913.92223   -1204.6552    32.728398   -34539.057    4437.1991   -30101.858 
 1602000   0.92982039    292.47586    480.96243    796.23111   -423.78286     1070.439    -34639.29    4518.6171   -30120.673 
 1603000   0.92982039     286.2929    630.47544    1137.5764   -438.94115    1192.7911   -34661.009    4423.0931   -30237.916 
 1604000   0.92982039    294.85383    576.09331    1095.4799   -199.72542    832.52546   -34618.623    4555.3557   -30063.267 
 1605000   0.92982039    287.03548    360.07598    956.64165   -516.60094    640.18723   -34639.914    4434.5657   -30205.348 
 1606000   0.92982039    292.31496    887.91793    1805.9679   -347.25545    1205.0414    -34660.19    4516.1312   -30144.059 
 1607000   0.92982039    280.29333    260.12976    1012.6822     -1123.47    891.17708   -34708.553    4330.4026    -30378.15 
 1608000   0.92982039      299.219    414.14128    1228.8448   -1036.5114    1050.0904   -34694.726    4622.7955   -30071.931 
 1609000   0.92982039    297.23106    396.64191    705.95125      -183.83    667.80448   -34577.736    4592.0827   -29985.653 
 1610000   0.92982039    286.79558    353.38075    1485.9276   -1079.3068    653.52144   -34679.721    4430.8593   -30248.862 
 1611000   0.92982039    293.09305    72.489329    248.47299   -727.15377    696.14877    -34680.61    4528.1524   -30152.457 
 1612000   0.92982039      286.603    361.91294    844.35781   -894.52656    1135.9076   -34632.823    4427.8841   -30204.939 
 1613000   0.92982039    283.38295    239.99802    571.52257   -711.98189    860.45339   -34695.376    4378.1357    -30317.24 
 1614000   0.92982039    287.25999    662.14376    1163.3536      -474.15    1297.2277   -34627.203    4438.0342   -30189.169 
 1615000   0.92982039    289.93078    166.51777    356.73569   -724.85473    867.67234   -34680.178    4479.2968   -30200.881 
 1616000   0.92982039    289.78308    631.74096    554.99074   -66.442965    1406.6751   -34676.377    4477.0149   -30199.363 
 1617000   0.92982039    290.66629   -9.4413471    946.24774    -1479.663    505.09125   -34662.654    4490.6601   -30171.993 
 1618000   0.92982039    291.01882    347.17065    911.09106   -1189.4531     1319.874   -34665.651    4496.1065   -30169.545 
 1619000   0.92982039    288.11987    193.17841    984.06178   -989.41947    584.89291   -34757.395     4451.319   -30306.076 
 1620000   0.92982039    289.13814    575.35253    1359.4952     -815.578    1182.1404   -34657.472    4467.0508   -30190.421 
 1621000   0.92982039    292.30615    306.91843    445.34813   -373.08874    848.49591   -34646.004    4515.9951   -30130.009 
 1622000   0.92982039    294.52716    590.49409    1726.3872   -694.23028    739.32535   -34570.875    4550.3087   -30020.566 
 1623000   0.92982039    285.85476    628.13876    818.67287   -546.23369    1611.9771   -34564.884    4416.3241    -30148.56 
 1624000   0.92982039    289.33497    65.071869    879.38149   -687.38066    3.2147754   -34602.985    4470.0917   -30132.894 
 1625000   0.92982039     296.4159    159.66273    693.43574   -1019.7627    805.31514   -34489.809    4579.4889    -29910.32 
 1626000   0.92982039    292.13696    171.26477    981.56714    -894.2887    426.51586   -34557.723    4513.3812   -30044.342 
 1627000   0.92982039    284.32314    208.51508    626.74352   -715.76772    714.56945   -34651.897    4392.6613   -30259.236 
 1628000   0.92982039      291.155    586.67912    1019.0729   -632.25866    1373.2231   -34660.052    4498.2103   -30161.842 
 1629000   0.92982039    295.76722    664.70215    802.37835   -11.068379    1202.7965   -34624.182     4569.467   -30054.715 
 1630000   0.92982039    288.77277    205.78702    708.64673   -833.15966    741.87399   -34594.763    4461.4061   -30133.357 
 1631000   0.92982039    290.14943   -72.556672    210.71333   -924.18772    495.80438   -34532.585    4482.6748    -30049.91 
 1632000   0.92982039    295.92326    385.56844    881.26547   -815.14292    1090.5828   -34650.026    4571.8777   -30078.149 
 1633000   0.92982039    286.71203    427.42016    250.56165   -450.13706    1481.8359   -34709.897    4429.5685   -30280.329 
 1634000   0.92982039    292.31345    57.710126    540.45715   -967.80559    600.47882   -34614.457     4516.108   -30098.349 
 1635000   0.92982039    291.42794    664.22033    734.60803   -269.19215    1527.2451   -34637.045    4502.4271   -30134.618 
 1636000   0.92982039    291.47786    560.63408    1123.8403   -479.06229    1037.1242   -34541.138    4503.1984    -30037.94 
 1637000   0.92982039    289.91049     221.1603    1267.4694   -1147.9563    543.96782   -34493.855    4478.9832   -30014.872 
 1638000   0.92982039    289.50373    152.95653    755.34097   -978.83549    682.36411   -34513.454     4472.699   -30040.755 
 1639000   0.92982039    289.51242     386.2109    1226.6592   -914.81508    846.78856   -34543.848    4472.8333   -30071.015 
 1640000   0.92982039    290.66029    96.091611    858.16166   -772.48949    202.60266    -34539.64    4490.5674   -30049.073 
 1641000   0.92982039    288.66551    175.63879    657.26136   -770.11523    639.77025   -34529.472    4459.7488   -30069.724 
 1642000   0.92982039    290.81003    395.81511    1026.2868   -581.69515    742.85372   -34600.913    4492.8807   -30108.033 
 1643000   0.92982039    289.85639    64.561602    403.11223   -650.70034    441.27292   -34562.982    4478.1475   -30084.834 
 1644000   0.92982039    293.16108    227.71832    574.55488   -956.82825    1065.4283   -34518.755    4529.2034   -29989.552 
 1645000   0.92982039    291.04226    108.09718    647.19309   -708.78568    385.88412   -34678.035    4496.4686   -30181.567 
 1646000   0.92982039    293.53102    724.84796    1112.4525   -309.38147    1371.4729   -34405.016    4534.9188   -29870.097 
 1647000   0.92982039    289.00205    284.87529    758.58399   -762.10643    858.14829   -34675.462    4464.9482   -30210.514 
 1648000   0.92982039    292.89435    504.58496    1191.7588   -806.27241    1128.2685   -34455.239    4525.0825   -29930.156 
 1649000   0.92982039    288.03978    454.82084    805.78431   -602.13331    1160.8115   -34558.086    4450.0816   -30108.004 
 1650000   0.92982039       287.41    397.29726    987.40502   -861.31579    1065.8025   -34629.152    4440.3519     -30188.8 
 1651000   0.92982039    295.92579    430.79662    916.42297   -741.83934    1117.8062   -34667.454    4571.9169   -30095.537 
 1652000   0.92982039    289.19788    90.629576    1112.5081   -1333.3752    492.75585   -34482.157    4467.9737   -30014.183 
 1653000   0.92982039    293.22623    277.36439    708.62517   -851.20891    974.67692   -34557.963    4530.2099   -30027.753 
 1654000   0.92982039    290.37561   -82.578104    143.69535   -985.26403    593.83438   -34653.587    4486.1691   -30167.417 
 1655000   0.92982039    291.99956    125.66607    865.02794   -789.44896    301.41924   -34622.385    4511.2584   -30111.127 
 1656000   0.92982039    285.75456   -85.248495    875.22819   -1400.4361    269.46245   -34760.245     4414.776   -30345.469 
 1657000   0.92982039    288.80905    42.755799    600.33099   -1243.1755    771.11196    -34643.56    4461.9666   -30181.593 
 1658000   0.92982039    293.12823    122.51942    789.77027   -1103.0403    680.82829   -34588.315    4528.6959   -30059.619 
 1659000   0.92982039    289.78603     23.00084     364.9552   -823.96762    528.01494   -34511.578    4477.0605   -30034.518 
 1660000   0.92982039    294.74614    239.28291     1286.702   -1261.3331    692.47985   -34529.792    4553.6918     -29976.1 
 1661000   0.92982039    290.38567   -304.26134      553.747   -1816.7485    350.21751   -34694.483    4486.3246   -30208.158 
 1662000   0.92982039    294.85988    260.30613    780.34003   -404.87688    405.45524   -34584.461    4555.4491   -30029.011 
 1663000   0.92982039    283.40664    418.51859    1090.3997   -611.82177    776.97784   -34569.408    4378.5018   -30190.906 
 1664000   0.92982039    286.72147    506.02